      -----------------------------------------------------------      
     |                   =====================                   |     
     |                           x T B                           |     
     |                   =====================                   |     
     |                         S. Grimme                         |     
     |          Mulliken Center for Theoretical Chemistry        |     
     |                    University of Bonn                     |     
      -----------------------------------------------------------      

   * xtb version 6.5.1 (b24c23e) compiled by 'conda@728c89f4b128' on 2022-07-12

   xtb is free software: you can redistribute it and/or modify it under
   the terms of the GNU Lesser General Public License as published by
   the Free Software Foundation, either version 3 of the License, or
   (at your option) any later version.
   
   xtb is distributed in the hope that it will be useful,
   but WITHOUT ANY WARRANTY; without even the implied warranty of
   MERCHANTABILITY or FITNESS FOR A PARTICULAR PURPOSE.  See the
   GNU Lesser General Public License for more details.
   
   Cite this work as:
   * C. Bannwarth, E. Caldeweyher, S. Ehlert, A. Hansen, P. Pracht,
     J. Seibert, S. Spicher, S. Grimme, WIREs Comput. Mol. Sci., 2020, 11,
     e01493. DOI: 10.1002/wcms.1493
   
   for GFN2-xTB:
   * C. Bannwarth, S. Ehlert and S. Grimme., J. Chem. Theory Comput., 2019,
     15, 1652-1671. DOI: 10.1021/acs.jctc.8b01176
   for GFN1-xTB:
   * S. Grimme, C. Bannwarth, P. Shushkov, J. Chem. Theory Comput., 2017,
     13, 1989-2009. DOI: 10.1021/acs.jctc.7b00118
   for GFN0-xTB:
   * P. Pracht, E. Caldeweyher, S. Ehlert, S. Grimme, ChemRxiv, 2019, preprint.
     DOI: 10.26434/chemrxiv.8326202.v1
   for GFN-FF:
   * S. Spicher and S. Grimme, Angew. Chem. Int. Ed., 2020, 59, 15665-15673.
     DOI: 10.1002/anie.202004239
   
   for ALPB and GBSA implicit solvation:
   * S. Ehlert, M. Stahn, S. Spicher, S. Grimme, J. Chem. Theory Comput.,
     2021, 17, 4250-4261. DOI: 10.1021/acs.jctc.1c00471
   
   for DFT-D4:
   * E. Caldeweyher, C. Bannwarth and S. Grimme, J. Chem. Phys., 2017,
     147, 034112. DOI: 10.1063/1.4993215
   * E. Caldeweyher, S. Ehlert, A. Hansen, H. Neugebauer, S. Spicher,
     C. Bannwarth and S. Grimme, J. Chem. Phys., 2019, 150, 154122.
     DOI: 10.1063/1.5090222
   * E. Caldeweyher, J.-M. Mewes, S. Ehlert and S. Grimme, Phys. Chem. Chem. Phys.
     2020, 22, 8499-8512. DOI: 10.1039/D0CP00502A
   
   for sTDA-xTB:
   * S. Grimme and C. Bannwarth, J. Chem. Phys., 2016, 145, 054103.
     DOI: 10.1063/1.4959605
   
   in the mass-spec context:
   * V. Asgeirsson, C. Bauer and S. Grimme, Chem. Sci., 2017, 8, 4879.
     DOI: 10.1039/c7sc00601b
   * J. Koopman and S. Grimme, ACS Omega 2019, 4, 12, 15120-15133.
     DOI: 10.1021/acsomega.9b02011
   
   for metadynamics refer to:
   * S. Grimme, J. Chem. Theory Comput., 2019, 155, 2847-2862
     DOI: 10.1021/acs.jctc.9b00143
   
   for SPH calculations refer to:
   * S. Spicher and S. Grimme, J. Chem. Theory Comput., 2021, 17, 1701-1714
     DOI: 10.1021/acs.jctc.0c01306
   
   with help from (in alphabetical order)
   P. Atkinson, C. Bannwarth, F. Bohle, G. Brandenburg, E. Caldeweyher
   M. Checinski, S. Dohm, S. Ehlert, S. Ehrlich, I. Gerasimov, C. Hölzer
   A. Katbashev, J. Koopman, C. Lavigne, S. Lehtola, F. März, M. Müller,
   F. Musil, H. Neugebauer, J. Pisarek, C. Plett, P. Pracht, F. Pultar,
   J. Seibert, P. Shushkov, S. Spicher, M. Stahn, M. Steiner, T. Strunk,
   J. Stückrath, T. Rose, and J. Unsleber
   
 * started run on 2022/08/24 at 16:39:59.841     

           -------------------------------------------------
          |                Calculation Setup                |
           -------------------------------------------------

          program call               : xtb water.xyz --gfn2 --alpb water --chrg 0 --uhf 0 --ohess -P 6
          coordinate file            : water.xyz
          omp threads                :                     6

   ID    Z sym.   atoms
    1    8 O      1
    2    1 H      2, 3

molecular fragmentation (1/2 indicates fragments):
122
# atoms in fragment 1/2:     1     2
 fragment masses (1/2) :       16.00        2.02
CMA distance (Bohr)    :   2.086
constraining FC (au)   :  0.0500

           -------------------------------------------------
          |                 G F N 2 - x T B                 |
           -------------------------------------------------

        Reference                      10.1021/acs.jctc.8b01176
      * Hamiltonian:
        H0-scaling (s, p, d)           1.850000    2.230000    2.230000
        zeta-weighting                 0.500000
      * Dispersion:
        s8                             2.700000
        a1                             0.520000
        a2                             5.000000
        s9                             5.000000
      * Repulsion:
        kExp                           1.500000    1.000000
        rExp                           1.000000
      * Coulomb:
        alpha                          2.000000
        third order                    shell-resolved
        anisotropic                    true
        a3                             3.000000
        a5                             4.000000
        cn-shift                       1.200000
        cn-exp                         4.000000
        max-rad                        5.000000

      * Solvation model:               ALPB
        Solvent                        water
        Parameter file                 internal GFN2-xTB/ALPB
        Dielectric constant                8.0200E+01
        Reference state                gsolv [1 M gas/solution]
        Free energy shift                  1.0808E-03 Eh       6.7819E-01 kcal/mol
        Temperature                        2.9815E+02 K
        Density                            1.0000E+00 kg/L
        Solvent mass                       1.8000E+01 g/mol
        Interaction kernel             P16
        Born radius scaling (c1)           1.4744E+00
        Born radii integrator          GBOBC
        Born offset                        0.0000E+00 a0       0.0000E+00 AA
        H-bond correction              true
        Ion screening                  false
        Surface tension                    1.0000E-05 Eh       1.5569E+01 dyn/cm
        Grid points                               230 per atom

          ...................................................
          :                      SETUP                      :
          :.................................................:
          :  # basis functions                   6          :
          :  # atomic orbitals                   6          :
          :  # shells                            4          :
          :  # electrons                         8          :
          :  max. iterations                   250          :
          :  Hamiltonian                  GFN2-xTB          :
          :  restarted?                      false          :
          :  GBSA solvation                   true          :
          :  PC potential                    false          :
          :  electronic temp.          300.0000000     K    :
          :  accuracy                    1.0000000          :
          :  -> integral cutoff          0.2500000E+02      :
          :  -> integral neglect         0.1000000E-07      :
          :  -> SCF convergence          0.1000000E-05 Eh   :
          :  -> wf. convergence          0.1000000E-03 e    :
          :  Broyden damping             0.4000000          :
          ...................................................

 iter      E             dE          RMSdq      gap      omega  full diag
   1     -4.7358816 -0.473588E+01  0.780E+00    3.69       0.0  T
   2     -4.8078165 -0.719349E-01  0.253E+00    1.80       1.0  T
   3     -4.8104041 -0.258764E-02  0.117E+00    2.08       1.0  T
   4     -4.8087382  0.166596E-02  0.120E+00    1.86       1.0  T
   5     -4.8107876 -0.204947E-02  0.757E-02    2.01       1.0  T
   6     -4.8107926 -0.496763E-05  0.407E-02    2.01       1.4  T
   7     -4.8107947 -0.212640E-05  0.103E-02    2.02       5.6  T
   8     -4.8107949 -0.142950E-06  0.188E-03    2.02      30.7  T
   9     -4.8107949 -0.492385E-08  0.148E-04    2.02     390.2  T
  10     -4.8107949 -0.222036E-10  0.707E-05    2.02     816.8  T

   *** convergence criteria satisfied after 10 iterations ***

         #    Occupation            Energy/Eh            Energy/eV
      -------------------------------------------------------------
         1        2.0000           -0.6035182             -16.4226
         2        2.0000           -0.4344569             -11.8222
         3        2.0000           -0.4182277             -11.3806
         4        2.0000           -0.3899028             -10.6098 (HOMO)
         5                         -0.3156608              -8.5896 (LUMO)
         6                         -0.2960732              -8.0566
      -------------------------------------------------------------
                  HL-Gap            0.0742420 Eh            2.0202 eV
             Fermi-level           -0.3527818 Eh           -9.5997 eV

 SCC (total)                   0 d,  0 h,  0 min,  0.125 sec
 SCC setup                      ...        0 min,  0.005 sec (  4.116%)
 Dispersion                     ...        0 min,  0.000 sec (  0.110%)
 classical contributions        ...        0 min,  0.000 sec (  0.149%)
 integral evaluation            ...        0 min,  0.000 sec (  0.153%)
 iterations                     ...        0 min,  0.109 sec ( 87.217%)
 molecular gradient             ...        0 min,  0.010 sec (  8.192%)
 printout                       ...        0 min,  0.000 sec (  0.039%)

         :::::::::::::::::::::::::::::::::::::::::::::::::::::
         ::                     SUMMARY                     ::
         :::::::::::::::::::::::::::::::::::::::::::::::::::::
         :: total energy              -4.810790210996 Eh    ::
         :: total w/o Gsasa/hb        -4.794720829088 Eh    ::
         :: gradient norm              0.138182034517 Eh/a0 ::
         :: HOMO-LUMO gap              2.020228348669 eV    ::
         ::.................................................::
         :: SCC energy                -4.810794862259 Eh    ::
         :: -> isotropic ES            0.087446781824 Eh    ::
         :: -> anisotropic ES          0.010212420829 Eh    ::
         :: -> anisotropic XC          0.001005341152 Eh    ::
         :: -> dispersion             -0.000199663483 Eh    ::
         :: -> Gsolv                  -0.041378596643 Eh    ::
         ::    -> Gelec               -0.025309214735 Eh    ::
         ::    -> Gsasa                0.002280807177 Eh    ::
         ::    -> Ghb                 -0.019430948783 Eh    ::
         ::    -> Gshift               0.001080759698 Eh    ::
         :: repulsion energy           0.000004644924 Eh    ::
         :: add. restraining           0.000000000000 Eh    ::
         :: total charge               0.000000000000 e     ::
         :::::::::::::::::::::::::::::::::::::::::::::::::::::

      ----------------------------------------------------------- 
     |                   =====================                   |
     |                        A N C O P T                        |
     |                   =====================                   |
     |               Approximate Normal Coordinate               |
     |                Rational Function Optimizer                |
      ----------------------------------------------------------- 

          ...................................................
          :                      SETUP                      :
          :.................................................:
          :   optimization level            normal          :
          :   max. optcycles                   200          :
          :   ANC micro-cycles                  20          :
          :   degrees of freedom                 3          :
          :.................................................:
          :   RF solver                   davidson          :
          :   write xtbopt.log                true          :
          :   linear?                        false          :
          :   energy convergence         0.5000000E-05 Eh   :
          :   grad. convergence          0.1000000E-02 Eh/α :
          :   maximium RF displ.         1.0000000          :
          :   Hlow (freq-cutoff)         0.1000000E-01      :
          :   Hmax (freq-cutoff)         5.0000000          :
          :   S6 in model hess.         20.0000000          :
          ...................................................

generating ANC from model Hessian ...
Using Lindh-Hessian (1995)
 Shifting diagonal of input Hessian by    9.4090028101973585E-003
 Lowest  eigenvalues of input Hessian
    0.000000    0.000000    0.000000    0.000000    0.000000    0.000000
    0.010000    0.050268    0.062286
 Highest eigenvalues
    0.000000    0.000000    0.000000    0.010000    0.050268    0.062286


........................................................................
.............................. CYCLE    1 ..............................
........................................................................
   1     -4.8107949 -0.481079E+01  0.275E-06    2.02       0.0  T
   2     -4.8107949 -0.532907E-14  0.171E-06    2.02   33843.6  T
   3     -4.8107949 -0.266454E-14  0.142E-07    2.02  100000.0  T
     SCC iter.                  ...        0 min,  0.001 sec
     gradient                   ...        0 min,  0.000 sec
 * total energy  :    -4.8107902 Eh     change       -0.6885159E-11 Eh
   gradient norm :     0.1381818 Eh/α   predicted     0.0000000E+00 (-100.00%)
   displ. norm   :     0.8348903 α      lambda       -0.1153556E+00
   maximum displ.:     0.8335314 α      in ANC's #2, #1, #1, ...

........................................................................
.............................. CYCLE    2 ..............................
........................................................................
   1     -4.9397258 -0.493973E+01  0.170E+00    3.95       0.0  T
   2     -4.9398868 -0.160974E-03  0.103E+00    4.02       1.0  T
   3     -4.9399212 -0.344347E-04  0.118E-01    4.03       1.0  T
   4     -4.9399235 -0.221943E-05  0.566E-02    4.03       1.0  T
   5     -4.9399241 -0.612399E-06  0.132E-03    4.03      43.8  T
   6     -4.9399241 -0.826059E-10  0.756E-04    4.03      76.3  T
   7     -4.9399241 -0.626583E-10  0.405E-06    4.03   14265.5  T
     SCC iter.                  ...        0 min,  0.000 sec
     gradient                   ...        0 min,  0.000 sec
 * total energy  :    -4.9396001 Eh     change       -0.1288099E+00 Eh
   gradient norm :     0.1626638 Eh/α   predicted    -0.9788163E-01 ( -24.01%)
   displ. norm   :     0.8729341 α      lambda       -0.1415706E+00
   maximum displ.:     0.8046405 α      in ANC's #2, #1, #1, ...

........................................................................
.............................. CYCLE    3 ..............................
........................................................................
   1     -5.0775810 -0.507758E+01  0.244E+00    9.96       0.0  T
   2     -5.0778257 -0.244678E-03  0.142E+00    9.88       1.0  T
   3     -5.0779172 -0.915424E-04  0.182E-01    9.81       1.0  T
   4     -5.0779247 -0.753791E-05  0.439E-02    9.88       1.3  T
   5     -5.0779251 -0.347603E-06  0.262E-02    9.86       2.2  T
   6     -5.0779252 -0.140746E-06  0.442E-04    9.87     130.6  T
   7     -5.0779252  0.124185E-10  0.231E-04    9.87     250.0  T
     SCC iter.                  ...        0 min,  0.002 sec
     gradient                   ...        0 min,  0.000 sec
 * total energy  :    -5.0622871 Eh     change       -0.1226869E+00 Eh
   gradient norm :     0.0903579 Eh/α   predicted    -0.1247247E+00 (   1.66%)
   displ. norm   :     0.9420272 α      lambda       -0.8307530E-01
   maximum displ.:     0.8672556 α      in ANC's #1, #2, #1, ...

........................................................................
.............................. CYCLE    4 ..............................
........................................................................
   1     -5.1501154 -0.515012E+01  0.180E+00   23.32       0.0  T
   2     -5.1502125 -0.970855E-04  0.104E+00   23.37       1.0  T
   3     -5.1502697 -0.571953E-04  0.888E-02   23.44       1.0  T
   4     -5.1502709 -0.115551E-05  0.154E-02   23.43       3.7  T
   5     -5.1502709 -0.294605E-07  0.562E-03   23.43      10.3  T
   6     -5.1502709 -0.535810E-08  0.932E-04   23.43      62.0  T
   7     -5.1502709 -0.409610E-10  0.256E-06   23.43   22569.5  T
     SCC iter.                  ...        0 min,  0.000 sec
     gradient                   ...        0 min,  0.000 sec
 * total energy  :    -5.0342577 Eh     change        0.2802940E-01 Eh
   gradient norm :     0.4059734 Eh/α   predicted    -0.7839880E-01 (-379.70%)
   displ. norm   :     0.4228381 α      lambda       -0.1561741E+00
   maximum displ.:     0.3930201 α      in ANC's #2, #1, #3, ...

........................................................................
.............................. CYCLE    5 ..............................
........................................................................
   1     -5.0763893 -0.507639E+01  0.179E+00   11.90       0.0  T
   2     -5.0768346 -0.445245E-03  0.102E+00   12.00       1.0  T
   3     -5.0770183 -0.183709E-03  0.235E-01   12.07       1.0  T
   4     -5.0770404 -0.221309E-04  0.731E-02   12.03       1.0  T
   5     -5.0770418 -0.135960E-05  0.129E-02   12.03       4.5  T
   6     -5.0770419 -0.858490E-07  0.250E-03   12.03      23.1  T
   7     -5.0770419 -0.354674E-09  0.166E-04   12.03     348.4  T
   8     -5.0770419 -0.128457E-10  0.574E-07   12.03  100000.0  T
     SCC iter.                  ...        0 min,  0.000 sec
     gradient                   ...        0 min,  0.000 sec
 * total energy  :    -5.0606950 Eh     change       -0.2643732E-01 Eh
   gradient norm :     0.1316560 Eh/α   predicted    -0.9204841E-01 ( 248.18%)
   displ. norm   :     0.7080951 α      lambda       -0.5676009E-01
   maximum displ.:     0.7079902 α      in ANC's #1, #2, #3, ...

........................................................................
.............................. CYCLE    6 ..............................
........................................................................
   1     -5.0972992 -0.509730E+01  0.107E+00   12.03       0.0  T
   2     -5.0974515 -0.152297E-03  0.633E-01   11.94       1.0  T
   3     -5.0975079 -0.563783E-04  0.148E-01   11.87       1.0  T
   4     -5.0975125 -0.468370E-05  0.259E-02   11.91       2.2  T
   5     -5.0975126 -0.409513E-07  0.644E-03   11.90       9.0  T
   6     -5.0975126 -0.785577E-08  0.279E-04   11.90     206.9  T
   7     -5.0975126 -0.115108E-11  0.246E-05   11.90    2348.4  T
     SCC iter.                  ...        0 min,  0.000 sec
     gradient                   ...        0 min,  0.000 sec
 * total energy  :    -5.0780766 Eh     change       -0.1738155E-01 Eh
   gradient norm :     0.0685444 Eh/α   predicted    -0.4260976E-01 ( 145.14%)
   displ. norm   :     0.2227432 α      lambda       -0.1119974E-01
   maximum displ.:     0.2080536 α      in ANC's #1, #2, #3, ...

........................................................................
.............................. CYCLE    7 ..............................
........................................................................
   1     -5.1145861 -0.511459E+01  0.429E-01   14.17       0.0  T
   2     -5.1145902 -0.410608E-05  0.249E-01   14.20       1.0  T
   3     -5.1145912 -0.101168E-05  0.181E-02   14.22       3.2  T
   4     -5.1145913 -0.107659E-06  0.234E-03   14.22      24.7  T
   5     -5.1145913 -0.485955E-09  0.100E-03   14.22      57.7  T
   6     -5.1145913 -0.137129E-09  0.126E-04   14.22     458.6  T
     SCC iter.                  ...        0 min,  0.000 sec
     gradient                   ...        0 min,  0.000 sec
 * total energy  :    -5.0847765 Eh     change       -0.6699967E-02 Eh
   gradient norm :     0.0178431 Eh/α   predicted    -0.5877703E-02 ( -12.27%)
   displ. norm   :     0.0396771 α      lambda       -0.5489707E-03
   maximum displ.:     0.0295366 α      in ANC's #1, #2, #3, ...

........................................................................
.............................. CYCLE    8 ..............................
........................................................................
   1     -5.1188041 -0.511880E+01  0.102E-01   14.84       0.0  T
   2     -5.1188044 -0.272167E-06  0.600E-02   14.84       1.0  T
   3     -5.1188045 -0.169394E-06  0.579E-03   14.84      10.0  T
   4     -5.1188045 -0.614992E-08  0.137E-03   14.85      42.1  T
   5     -5.1188045 -0.386272E-09  0.226E-04   14.85     255.3  T
   6     -5.1188045 -0.113847E-10  0.507E-05   14.85    1138.9  T
     SCC iter.                  ...        0 min,  0.000 sec
     gradient                   ...        0 min,  0.000 sec
 * total energy  :    -5.0850161 Eh     change       -0.2395945E-03 Eh
   gradient norm :     0.0023450 Eh/α   predicted    -0.2749164E-03 (  14.74%)
   displ. norm   :     0.0061141 α      lambda       -0.1059544E-04
   maximum displ.:     0.0051579 α      in ANC's #1, #2, #3, ...

........................................................................
.............................. CYCLE    9 ..............................
........................................................................
   1     -5.1183111 -0.511831E+01  0.133E-02   14.76       0.0  T
   2     -5.1183111 -0.356534E-08  0.785E-03   14.76       7.4  T
   3     -5.1183111 -0.275460E-08  0.637E-04   14.76      90.7  T
   4     -5.1183111 -0.154778E-09  0.750E-05   14.76     769.8  T
     SCC iter.                  ...        0 min,  0.000 sec
     gradient                   ...        0 min,  0.000 sec
 * total energy  :    -5.0850207 Eh     change       -0.4621394E-05 Eh
   gradient norm :     0.0010486 Eh/α   predicted    -0.5298320E-05 (  14.65%)
   displ. norm   :     0.0232084 α      lambda       -0.1350760E-04
   maximum displ.:     0.0200377 α      in ANC's #3, #1, #2, ...

........................................................................
.............................. CYCLE   10 ..............................
........................................................................
   1     -5.1173625 -0.511736E+01  0.662E-02   14.56       0.0  T
   2     -5.1173630 -0.508001E-06  0.403E-02   14.56       1.4  T
   3     -5.1173635 -0.465897E-06  0.767E-03   14.56       7.5  T
   4     -5.1173635 -0.399890E-07  0.597E-04   14.56      96.6  T
   5     -5.1173635 -0.558815E-10  0.251E-04   14.56     230.0  T
     SCC iter.                  ...        0 min,  0.000 sec
     gradient                   ...        0 min,  0.000 sec
 * total energy  :    -5.0848162 Eh     change        0.2045443E-03 Eh
   gradient norm :     0.0199215 Eh/α   predicted    -0.6756229E-05 (-103.30%)
   displ. norm   :     0.0148615 α      lambda       -0.2707563E-03
   maximum displ.:     0.0126685 α      in ANC's #3, #1, #2, ...

........................................................................
.............................. CYCLE   11 ..............................
........................................................................
   1     -5.1180383 -0.511804E+01  0.423E-02   14.71       0.0  T
   2     -5.1180385 -0.203465E-06  0.258E-02   14.71       2.2  T
   3     -5.1180387 -0.186072E-06  0.485E-03   14.71      11.9  T
   4     -5.1180387 -0.158255E-07  0.369E-04   14.71     156.5  T
   5     -5.1180387 -0.172751E-10  0.131E-04   14.71     441.5  T
     SCC iter.                  ...        0 min,  0.000 sec
     gradient                   ...        0 min,  0.000 sec
 * total energy  :    -5.0849982 Eh     change       -0.1819678E-03 Eh
   gradient norm :     0.0067789 Eh/α   predicted    -0.1354072E-03 ( -25.59%)
   displ. norm   :     0.0075639 α      lambda       -0.4744460E-04
   maximum displ.:     0.0065200 α      in ANC's #3, #1, #2, ...

........................................................................
.............................. CYCLE   12 ..............................
........................................................................
   1     -5.1183914 -0.511839E+01  0.219E-02   14.77       0.0  T
   2     -5.1183914 -0.540529E-07  0.133E-02   14.77       4.3  T
   3     -5.1183915 -0.493606E-07  0.250E-03   14.77      23.1  T
   4     -5.1183915 -0.417216E-08  0.184E-04   14.77     314.3  T
   5     -5.1183915 -0.328004E-11  0.437E-05   14.77    1321.9  T
     SCC iter.                  ...        0 min,  0.000 sec
     gradient                   ...        0 min,  0.000 sec
 * total energy  :    -5.0850212 Eh     change       -0.2306737E-04 Eh
   gradient norm :     0.0002956 Eh/α   predicted    -0.2372245E-04 (   2.84%)
   displ. norm   :     0.0005227 α      lambda       -0.9508494E-07
   maximum displ.:     0.0004605 α      in ANC's #2, #3, #1, ...

........................................................................
.............................. CYCLE   13 ..............................
........................................................................
   1     -5.1183210 -0.511832E+01  0.192E-03   14.76       0.0  T
   2     -5.1183210 -0.294330E-09  0.112E-03   14.76      51.3  T
   3     -5.1183210 -0.158291E-09  0.190E-04   14.76     304.7  T
   4     -5.1183210 -0.119593E-10  0.536E-05   14.76    1077.6  T
     SCC iter.                  ...        0 min,  0.000 sec
     gradient                   ...        0 min,  0.000 sec
 * total energy  :    -5.0850213 Eh     change       -0.4018795E-07 Eh
   gradient norm :     0.0001353 Eh/α   predicted    -0.4960258E-07 (  23.43%)
   displ. norm   :     0.0002137 α      lambda       -0.1447446E-07
   maximum displ.:     0.0001452 α      in ANC's #1, #2, #3, ...

   *** GEOMETRY OPTIMIZATION CONVERGED AFTER 13 ITERATIONS ***

------------------------------------------------------------------------
 total energy gain   :        -0.2742311 Eh     -172.0826 kcal/mol
 total RMSD          :         1.1339275 a0        0.6000 Å
 total power (kW/mol):       -55.3841200 (step)********** (real)
------------------------------------------------------------------------

 ANCopt (total)                0 d,  0 h,  0 min,  0.010 sec
 optimizer setup                ...        0 min,  0.000 sec (  1.704%)
 model hessian                  ...        0 min,  0.000 sec (  2.145%)
 ANC generation                 ...        0 min,  0.000 sec (  0.504%)
 coordinate transformation      ...        0 min,  0.000 sec (  0.440%)
 single point calculation       ...        0 min,  0.008 sec ( 78.584%)
 optimization log               ...        0 min,  0.001 sec (  7.619%)
 hessian update                 ...        0 min,  0.000 sec (  2.004%)
 rational function              ...        0 min,  0.000 sec (  2.714%)

================
 final structure:
================
3
 xtb: 6.5.1 (b24c23e)
O            0.00002974922199       -0.38112213862979        0.00067855266180
H            0.77442716468247        0.19054968126320        0.00016073398436
H           -0.77445691390446        0.19057245736658        0.00016071335383

 Bond Distances (Angstroems)
 ---------------------------
O1-H2=0.9625         O1-H3=0.9626         H2-O1=0.9625         H3-O1=0.9626         
 O  H  Rav=0.9626 sigma=0.0000  Rmin=0.9625  Rmax=0.9626     2

 selected bond angles (degree)
 --------------------
H3-O1-H2=107.13                

 selected dihedral angles (degree)
 ---------------------------------


 CMA Distance (Angstroems)
 ---------------------------
R(CMA):  0.5717
           -------------------------------------------------
          |                Final Singlepoint                |
           -------------------------------------------------

          ...................................................
          :                      SETUP                      :
          :.................................................:
          :  # basis functions                   6          :
          :  # atomic orbitals                   6          :
          :  # shells                            4          :
          :  # electrons                         8          :
          :  max. iterations                   250          :
          :  Hamiltonian                  GFN2-xTB          :
          :  restarted?                      false          :
          :  GBSA solvation                   true          :
          :  PC potential                    false          :
          :  electronic temp.          300.0000000     K    :
          :  accuracy                    1.0000000          :
          :  -> integral cutoff          0.2500000E+02      :
          :  -> integral neglect         0.1000000E-07      :
          :  -> SCF convergence          0.1000000E-05 Eh   :
          :  -> wf. convergence          0.1000000E-03 e    :
          :  Broyden damping             0.4000000          :
          ...................................................

 iter      E             dE          RMSdq      gap      omega  full diag
   1     -5.1183210 -0.511832E+01  0.542E-06   14.76       0.0  T
   2     -5.1183210 -0.799361E-14  0.375E-06   14.76   15414.3  T
   3     -5.1183210 -0.355271E-14  0.370E-07   14.76  100000.0  T

   *** convergence criteria satisfied after 3 iterations ***

         #    Occupation            Energy/Eh            Energy/eV
      -------------------------------------------------------------
         1        2.0000           -0.6700728             -18.2336
         2        2.0000           -0.5483882             -14.9224
         3        2.0000           -0.4950341             -13.4706
         4        2.0000           -0.4344054             -11.8208 (HOMO)
         5                          0.1080984               2.9415 (LUMO)
         6                          0.2789368               7.5903
      -------------------------------------------------------------
                  HL-Gap            0.5425038 Eh           14.7623 eV
             Fermi-level           -0.1631535 Eh           -4.4396 eV

 SCC (total)                   0 d,  0 h,  0 min,  0.000 sec
 SCC setup                      ...        0 min,  0.000 sec ( 14.096%)
 Dispersion                     ...        0 min,  0.000 sec (  2.772%)
 classical contributions        ...        0 min,  0.000 sec (  1.504%)
 integral evaluation            ...        0 min,  0.000 sec ( 12.858%)
 iterations                     ...        0 min,  0.000 sec ( 39.339%)
 molecular gradient             ...        0 min,  0.000 sec ( 17.812%)
 printout                       ...        0 min,  0.000 sec (  8.198%)

         :::::::::::::::::::::::::::::::::::::::::::::::::::::
         ::                     SUMMARY                     ::
         :::::::::::::::::::::::::::::::::::::::::::::::::::::
         :: total energy              -5.085021274898 Eh    ::
         :: total w/o Gsasa/hb        -5.073188389916 Eh    ::
         :: gradient norm              0.000134642452 Eh/a0 ::
         :: HOMO-LUMO gap             14.762279671661 eV    ::
         ::.................................................::
         :: SCC energy                -5.118321037698 Eh    ::
         :: -> isotropic ES            0.049211879017 Eh    ::
         :: -> anisotropic ES         -0.001165152636 Eh    ::
         :: -> anisotropic XC         -0.000256311121 Eh    ::
         :: -> dispersion             -0.000127142196 Eh    ::
         :: -> Gsolv                  -0.019250388693 Eh    ::
         ::    -> Gelec               -0.007417503711 Eh    ::
         ::    -> Gsasa                0.001919536066 Eh    ::
         ::    -> Ghb                 -0.014833180747 Eh    ::
         ::    -> Gshift               0.001080759698 Eh    ::
         :: repulsion energy           0.033299762773 Eh    ::
         :: add. restraining           0.000000000000 Eh    ::
         :: total charge               0.000000000000 e     ::
         :::::::::::::::::::::::::::::::::::::::::::::::::::::

           ------------------------------------------------- 
          |                Numerical Hessian                |
           ------------------------------------------------- 
step length          :   0.00500
SCC accuracy         :   0.30000
Hessian scale factor :   1.00000
frozen atoms in %    :   0.00000    0
RMS gradient         :   0.00013
estimated CPU  time      0.00 min
estimated wall time      0.00 min

writing file <hessian>.

 projected vibrational frequencies (cm⁻¹)
eigval :       -0.00    -0.00    -0.00     0.00     0.00     0.00
eigval :     1444.54  3593.87  3596.16
           -------------------------------------------------
          |                Property Printout                |
           -------------------------------------------------

    * Orbital Energies and Occupations

         #    Occupation            Energy/Eh            Energy/eV
      -------------------------------------------------------------
         1        2.0000           -0.6700728             -18.2336
         2        2.0000           -0.5483882             -14.9224
         3        2.0000           -0.4950341             -13.4706
         4        2.0000           -0.4344054             -11.8208 (HOMO)
         5                          0.1080984               2.9415 (LUMO)
         6                          0.2789368               7.5903
      -------------------------------------------------------------
                  HL-Gap            0.5425038 Eh           14.7623 eV
             Fermi-level           -0.1631535 Eh           -4.4396 eV

     #   Z          covCN         q      C6AA      α(0)
     1   8 O        1.610    -0.720    28.234     7.172
     2   1 H        0.805     0.360     0.566     1.181
     3   1 H        0.805     0.360     0.566     1.181

 Mol. C6AA /au·bohr⁶  :         46.187152
 Mol. C8AA /au·bohr⁸  :        842.196270
 Mol. α(0) /au        :          9.534491


Wiberg/Mayer (AO) data.
largest (>0.10) Wiberg bond orders for each atom

 ---------------------------------------------------------------------------
     #   Z sym  total        # sym  WBO       # sym  WBO       # sym  WBO
 ---------------------------------------------------------------------------
     1   8 O    1.741 --     2 H    0.870     3 H    0.870
     2   1 H    0.871 --     1 O    0.870
     3   1 H    0.871 --     1 O    0.870
 ---------------------------------------------------------------------------

Topologies differ in total number of bonds
Writing topology from bond orders to xtbtopo.mol

molecular dipole:
                 x           y           z       tot (Debye)
 q only:       -0.000       0.777      -0.001
   full:       -0.000       0.975      -0.001       2.479
molecular quadrupole (traceless):
                xx          xy          yy          xz          yz          zz
 q only:        1.681      -0.000      -1.050      -0.000       0.001      -0.631
  q+dip:        2.033      -0.000      -1.315      -0.000       0.001      -0.718
   full:        2.231      -0.000      -1.265      -0.000       0.001      -0.966

           -------------------------------------------------
          |                Geometry Summary                 |
           -------------------------------------------------

      molecular mass/u    :       18.0152864
   center of mass at/Å    :        0.0000231      -0.3171517       0.0006212
Molecule has the following symmetry elements: (C2) 2*(sigma) 
It seems to be the C2v point group
  moments of inertia/u·Å² :        0.5851119E+00   0.1209046E+01   0.1794158E+01
rotational constants/cm⁻¹ :        0.2881095E+02   0.1394292E+02   0.9395845E+01

 * 2 selected distances

     #   Z          #   Z                                           value/Å
     1   8 O        2   1 H                                       0.9625489 (min)
     1   8 O        3   1 H                                       0.9626343 (max)

 * 1 distinct bonds (by element types)

   Z      Z             #   av. dist./Å        max./Å        min./Å
   1 H    8 O           2     0.9625916     0.9626343     0.9625489

           -------------------------------------------------
          |               Frequency Printout                |
           -------------------------------------------------
 projected vibrational frequencies (cm⁻¹)
eigval :       -0.00    -0.00    -0.00     0.00     0.00     0.00
eigval :     1444.54  3593.87  3596.16
 reduced masses (amu)
   1:  1.72   2: 13.76   3: 13.64   4: 16.00   5:  2.09   6:  1.01   7:  2.14   8:  2.10
   9:  1.60
 IR intensities (km·mol⁻¹)
   1:176.88   2:  1.92   3: 10.04   4: 49.64   5:151.89   6:197.42   7:196.18   8:122.38
   9: 42.55
 Raman intensities (amu)
   1:  0.00   2:  0.00   3:  0.00   4:  0.00   5:  0.00   6:  0.00   7:  0.00   8:  0.00
   9:  0.00
 output can be read by thermo (or use thermo option).
 writing <g98.out> molden fake output.
 recommended (thermochemical) frequency scaling factor: 1.0
           -------------------------------------------------
          |             Thermodynamic Functions             |
           -------------------------------------------------

c2v symmetry found (for desy threshold:  0.10E+00) used in thermo

          ...................................................
          :                      SETUP                      :
          :.................................................:
          :  # frequencies                           3      :
          :  # imaginary freq.                       0      :
          :  linear?                             false      :
          :  only rotor calc.                    false      :
          :  symmetry                              c2v      :
          :  rotational number                       2      :
          :  scaling factor                  1.0000000      :
          :  rotor cutoff                   50.0000000 cm⁻¹ :
          :  imag. cutoff                  -20.0000000 cm⁻¹ :
          :.................................................:

    mode    ω/cm⁻¹     T·S(HO)/kcal·mol⁻¹    T·S(FR)/kcal·mol⁻¹   T·S(vib)
   ------------------------------------------------------------------------
   ------------------------------------------------------------------------

   temp. (K)  partition function   enthalpy   heat capacity  entropy
                                   cal/mol     cal/K/mol   cal/K/mol   J/K/mol
 298.15  VIB   1.00                    3.882      0.091      0.015
         ROT   43.0                  888.752      2.981     10.457
         INT   43.1                  892.634      3.072     10.472
         TR   0.740E+26             1481.254      4.968     34.593
         TOT                        2373.8880     8.0399    45.0651   188.5523

       T/K    H(0)-H(T)+PV         H(T)/Eh          T*S/Eh         G(T)/Eh
   ------------------------------------------------------------------------
    298.15    0.378303E-02    0.234540E-01    0.214119E-01    0.204215E-02
   ------------------------------------------------------------------------

         :::::::::::::::::::::::::::::::::::::::::::::::::::::
         ::                  THERMODYNAMIC                  ::
         :::::::::::::::::::::::::::::::::::::::::::::::::::::
         :: total free energy          -5.082979127114 Eh   ::
         ::.................................................::
         :: total energy               -5.085021274900 Eh   ::
         :: zero point energy           0.019670991119 Eh   ::
         :: G(RRHO) w/o ZPVE           -0.017628843333 Eh   ::
         :: G(RRHO) contrib.            0.002042147786 Eh   ::
         :::::::::::::::::::::::::::::::::::::::::::::::::::::

optimized geometry written to: xtbopt.xyz


           -------------------------------------------------
          | TOTAL ENERGY               -5.085021274900 Eh   |
          | TOTAL ENTHALPY             -5.061567252405 Eh   |
          | TOTAL FREE ENERGY          -5.082979127114 Eh   |
          | GRADIENT NORM               0.000134648891 Eh/α |
          | HOMO-LUMO GAP              14.762279677002 eV   |
           -------------------------------------------------

------------------------------------------------------------------------
 * finished run on 2022/08/24 at 16:40:00.026     
------------------------------------------------------------------------
 total:
 * wall-time:     0 d,  0 h,  0 min,  0.185 sec
 *  cpu-time:     0 d,  0 h,  0 min,  0.828 sec
 * ratio c/w:     4.488 speedup
 SCF:
 * wall-time:     0 d,  0 h,  0 min,  0.125 sec
 *  cpu-time:     0 d,  0 h,  0 min,  0.641 sec
 * ratio c/w:     5.128 speedup
 ANC optimizer:
 * wall-time:     0 d,  0 h,  0 min,  0.016 sec
 *  cpu-time:     0 d,  0 h,  0 min,  0.094 sec
 * ratio c/w:     5.893 speedup
 analytical hessian:
 * wall-time:     0 d,  0 h,  0 min,  0.020 sec
 *  cpu-time:     0 d,  0 h,  0 min,  0.094 sec
 * ratio c/w:     4.638 speedup

