      -----------------------------------------------------------      
     |                   =====================                   |     
     |                           x T B                           |     
     |                   =====================                   |     
     |                         S. Grimme                         |     
     |          Mulliken Center for Theoretical Chemistry        |     
     |                    University of Bonn                     |     
      -----------------------------------------------------------      

   * xtb version 6.5.1 (b24c23e) compiled by 'conda@728c89f4b128' on 2022-07-12

   xtb is free software: you can redistribute it and/or modify it under
   the terms of the GNU Lesser General Public License as published by
   the Free Software Foundation, either version 3 of the License, or
   (at your option) any later version.
   
   xtb is distributed in the hope that it will be useful,
   but WITHOUT ANY WARRANTY; without even the implied warranty of
   MERCHANTABILITY or FITNESS FOR A PARTICULAR PURPOSE.  See the
   GNU Lesser General Public License for more details.
   
   Cite this work as:
   * C. Bannwarth, E. Caldeweyher, S. Ehlert, A. Hansen, P. Pracht,
     J. Seibert, S. Spicher, S. Grimme, WIREs Comput. Mol. Sci., 2020, 11,
     e01493. DOI: 10.1002/wcms.1493
   
   for GFN2-xTB:
   * C. Bannwarth, S. Ehlert and S. Grimme., J. Chem. Theory Comput., 2019,
     15, 1652-1671. DOI: 10.1021/acs.jctc.8b01176
   for GFN1-xTB:
   * S. Grimme, C. Bannwarth, P. Shushkov, J. Chem. Theory Comput., 2017,
     13, 1989-2009. DOI: 10.1021/acs.jctc.7b00118
   for GFN0-xTB:
   * P. Pracht, E. Caldeweyher, S. Ehlert, S. Grimme, ChemRxiv, 2019, preprint.
     DOI: 10.26434/chemrxiv.8326202.v1
   for GFN-FF:
   * S. Spicher and S. Grimme, Angew. Chem. Int. Ed., 2020, 59, 15665-15673.
     DOI: 10.1002/anie.202004239
   
   for ALPB and GBSA implicit solvation:
   * S. Ehlert, M. Stahn, S. Spicher, S. Grimme, J. Chem. Theory Comput.,
     2021, 17, 4250-4261. DOI: 10.1021/acs.jctc.1c00471
   
   for DFT-D4:
   * E. Caldeweyher, C. Bannwarth and S. Grimme, J. Chem. Phys., 2017,
     147, 034112. DOI: 10.1063/1.4993215
   * E. Caldeweyher, S. Ehlert, A. Hansen, H. Neugebauer, S. Spicher,
     C. Bannwarth and S. Grimme, J. Chem. Phys., 2019, 150, 154122.
     DOI: 10.1063/1.5090222
   * E. Caldeweyher, J.-M. Mewes, S. Ehlert and S. Grimme, Phys. Chem. Chem. Phys.
     2020, 22, 8499-8512. DOI: 10.1039/D0CP00502A
   
   for sTDA-xTB:
   * S. Grimme and C. Bannwarth, J. Chem. Phys., 2016, 145, 054103.
     DOI: 10.1063/1.4959605
   
   in the mass-spec context:
   * V. Asgeirsson, C. Bauer and S. Grimme, Chem. Sci., 2017, 8, 4879.
     DOI: 10.1039/c7sc00601b
   * J. Koopman and S. Grimme, ACS Omega 2019, 4, 12, 15120-15133.
     DOI: 10.1021/acsomega.9b02011
   
   for metadynamics refer to:
   * S. Grimme, J. Chem. Theory Comput., 2019, 155, 2847-2862
     DOI: 10.1021/acs.jctc.9b00143
   
   for SPH calculations refer to:
   * S. Spicher and S. Grimme, J. Chem. Theory Comput., 2021, 17, 1701-1714
     DOI: 10.1021/acs.jctc.0c01306
   
   with help from (in alphabetical order)
   P. Atkinson, C. Bannwarth, F. Bohle, G. Brandenburg, E. Caldeweyher
   M. Checinski, S. Dohm, S. Ehlert, S. Ehrlich, I. Gerasimov, C. Hölzer
   A. Katbashev, J. Koopman, C. Lavigne, S. Lehtola, F. März, M. Müller,
   F. Musil, H. Neugebauer, J. Pisarek, C. Plett, P. Pracht, F. Pultar,
   J. Seibert, P. Shushkov, S. Spicher, M. Stahn, M. Steiner, T. Strunk,
   J. Stückrath, T. Rose, and J. Unsleber
   
 * started run on 2022/12/22 at 11:48:16.864     

           -------------------------------------------------
          |                Calculation Setup                |
           -------------------------------------------------

          program call               : xtb urea.xyz -ohess -P 4
          coordinate file            : urea.xyz
          omp threads                :                     4

   ID    Z sym.   atoms
    1    6 C      1
    2    7 N      2, 5
    3    1 H      3, 4, 6, 7
    4    8 O      8
########################################################################
[WARNING] Please study the warnings concerning your input carefully
-1- prog_main_parseArguments: the use of '-ohess' is discouraged, please use '--ohess' next time
########################################################################

           -------------------------------------------------
          |                 G F N 2 - x T B                 |
           -------------------------------------------------

        Reference                      10.1021/acs.jctc.8b01176
      * Hamiltonian:
        H0-scaling (s, p, d)           1.850000    2.230000    2.230000
        zeta-weighting                 0.500000
      * Dispersion:
        s8                             2.700000
        a1                             0.520000
        a2                             5.000000
        s9                             5.000000
      * Repulsion:
        kExp                           1.500000    1.000000
        rExp                           1.000000
      * Coulomb:
        alpha                          2.000000
        third order                    shell-resolved
        anisotropic                    true
        a3                             3.000000
        a5                             4.000000
        cn-shift                       1.200000
        cn-exp                         4.000000
        max-rad                        5.000000


          ...................................................
          :                      SETUP                      :
          :.................................................:
          :  # basis functions                  20          :
          :  # atomic orbitals                  20          :
          :  # shells                           12          :
          :  # electrons                        24          :
          :  max. iterations                   250          :
          :  Hamiltonian                  GFN2-xTB          :
          :  restarted?                      false          :
          :  GBSA solvation                  false          :
          :  PC potential                    false          :
          :  electronic temp.          300.0000000     K    :
          :  accuracy                    1.0000000          :
          :  -> integral cutoff          0.2500000E+02      :
          :  -> integral neglect         0.1000000E-07      :
          :  -> SCF convergence          0.1000000E-05 Eh   :
          :  -> wf. convergence          0.1000000E-03 e    :
          :  Broyden damping             0.4000000          :
          ...................................................

 iter      E             dE          RMSdq      gap      omega  full diag
   1    -14.1694856 -0.141695E+02  0.500E+00    4.69       0.0  T
   2    -14.2281310 -0.586454E-01  0.247E+00    5.40       1.0  T
   3    -14.2290639 -0.932872E-03  0.125E+00    5.35       1.0  T
   4    -14.2292417 -0.177806E-03  0.196E-01    5.42       1.0  T
   5    -14.2293197 -0.779990E-04  0.963E-02    5.38       1.0  T
   6    -14.2293208 -0.107707E-05  0.330E-02    5.40       1.1  T
   7    -14.2293263 -0.551819E-05  0.115E-02    5.39       3.1  T
   8    -14.2293266 -0.282751E-06  0.167E-03    5.39      21.2  T
   9    -14.2293266 -0.128109E-07  0.191E-04    5.39     185.6  T
  10    -14.2293266 -0.100037E-09  0.669E-05    5.39     528.5  T

   *** convergence criteria satisfied after 10 iterations ***

         #    Occupation            Energy/Eh            Energy/eV
      -------------------------------------------------------------
         1        2.0000           -0.6928238             -18.8527
       ...           ...                  ...                  ...
         6        2.0000           -0.5581891             -15.1891
         7        2.0000           -0.5329687             -14.5028
         8        2.0000           -0.5181520             -14.0996
         9        2.0000           -0.4971536             -13.5282
        10        2.0000           -0.4232374             -11.5169
        11        2.0000           -0.4160485             -11.3213
        12        2.0000           -0.4012653             -10.9190 (HOMO)
        13                         -0.2033137              -5.5324 (LUMO)
        14                         -0.0136223              -0.3707
        15                          0.0609369               1.6582
        16                          0.1406902               3.8284
        17                          0.1770106               4.8167
       ...                                ...                  ...
        20                          0.5719105              15.5625
      -------------------------------------------------------------
                  HL-Gap            0.1979516 Eh            5.3865 eV
             Fermi-level           -0.3022895 Eh           -8.2257 eV

 SCC (total)                   0 d,  0 h,  0 min,  0.026 sec
 SCC setup                      ...        0 min,  0.008 sec ( 30.997%)
 Dispersion                     ...        0 min,  0.001 sec (  4.887%)
 classical contributions        ...        0 min,  0.001 sec (  2.293%)
 integral evaluation            ...        0 min,  0.002 sec (  6.104%)
 iterations                     ...        0 min,  0.012 sec ( 47.240%)
 molecular gradient             ...        0 min,  0.001 sec (  5.238%)
 printout                       ...        0 min,  0.001 sec (  3.120%)

         :::::::::::::::::::::::::::::::::::::::::::::::::::::
         ::                     SUMMARY                     ::
         :::::::::::::::::::::::::::::::::::::::::::::::::::::
         :: total energy             -14.093063923324 Eh    ::
         :: gradient norm              0.054359875565 Eh/a0 ::
         :: HOMO-LUMO gap              5.386537600573 eV    ::
         ::.................................................::
         :: SCC energy               -14.229326601436 Eh    ::
         :: -> isotropic ES            0.053539737445 Eh    ::
         :: -> anisotropic ES          0.004828975690 Eh    ::
         :: -> anisotropic XC          0.004181783470 Eh    ::
         :: -> dispersion             -0.002970363450 Eh    ::
         :: repulsion energy           0.136262185495 Eh    ::
         :: add. restraining           0.000000000000 Eh    ::
         :: total charge              -0.000000000000 e     ::
         :::::::::::::::::::::::::::::::::::::::::::::::::::::

      ----------------------------------------------------------- 
     |                   =====================                   |
     |                        A N C O P T                        |
     |                   =====================                   |
     |               Approximate Normal Coordinate               |
     |                Rational Function Optimizer                |
      ----------------------------------------------------------- 

          ...................................................
          :                      SETUP                      :
          :.................................................:
          :   optimization level            normal          :
          :   max. optcycles                   200          :
          :   ANC micro-cycles                  20          :
          :   degrees of freedom                18          :
          :.................................................:
          :   RF solver                   davidson          :
          :   write xtbopt.log                true          :
          :   linear?                        false          :
          :   energy convergence         0.5000000E-05 Eh   :
          :   grad. convergence          0.1000000E-02 Eh/α :
          :   maximium RF displ.         1.0000000          :
          :   Hlow (freq-cutoff)         0.1000000E-01      :
          :   Hmax (freq-cutoff)         5.0000000          :
          :   S6 in model hess.         20.0000000          :
          ...................................................

generating ANC from model Hessian ...
Using Lindh-Hessian (1995)
 Shifting diagonal of input Hessian by    0.0000000000000000     
 Lowest  eigenvalues of input Hessian
    0.000000    0.000000    0.000000    0.000000    0.000000    0.000000
    0.019403    0.021247    0.040936    0.080108    0.115900    0.132554
    0.136548    0.198971    0.228377    0.276720    0.359472    0.517371
 Highest eigenvalues
    0.846954    1.277899    1.453674    1.480278    1.890994    2.279709


........................................................................
.............................. CYCLE    1 ..............................
........................................................................
   1    -14.2293266 -0.142293E+02  0.164E-05    5.39       0.0  T
   2    -14.2293266 -0.913047E-12  0.696E-06    5.39    5078.5  T
   3    -14.2293266 -0.111910E-12  0.395E-06    5.39    8959.7  T
     SCC iter.                  ...        0 min,  0.003 sec
     gradient                   ...        0 min,  0.001 sec
 * total energy  :   -14.0930639 Eh     change       -0.1142730E-10 Eh
   gradient norm :     0.0543593 Eh/α   predicted     0.0000000E+00 (-100.00%)
   displ. norm   :     0.1477805 α      lambda       -0.4751182E-02
   maximum displ.:     0.0974019 α      in ANC's #7, #1, #12, ...

........................................................................
.............................. CYCLE    2 ..............................
........................................................................
   1    -14.2459393 -0.142459E+02  0.244E-01    5.79       0.0  T
   2    -14.2460186 -0.793049E-04  0.152E-01    5.73       1.0  T
   3    -14.2460273 -0.878204E-05  0.743E-02    5.76       1.0  T
   4    -14.2460327 -0.539221E-05  0.855E-03    5.75       4.1  T
   5    -14.2460328 -0.233707E-07  0.169E-03    5.75      20.9  T
   6    -14.2460328 -0.222913E-08  0.753E-04    5.75      47.0  T
   7    -14.2460328 -0.174154E-09  0.947E-05    5.75     373.3  T
     SCC iter.                  ...        0 min,  0.001 sec
     gradient                   ...        0 min,  0.000 sec
 * total energy  :   -14.0959581 Eh     change       -0.2894142E-02 Eh
   gradient norm :     0.0156131 Eh/α   predicted    -0.2427471E-02 ( -16.12%)
   displ. norm   :     0.0723446 α      lambda       -0.9742702E-03
   maximum displ.:     0.0501710 α      in ANC's #9, #12, #3, ...

........................................................................
.............................. CYCLE    3 ..............................
........................................................................
   1    -14.2527298 -0.142527E+02  0.153E-01    5.95       0.0  T
   2    -14.2527624 -0.326287E-04  0.858E-02    5.91       1.0  T
   3    -14.2527657 -0.330749E-05  0.420E-02    5.92       1.0  T
   4    -14.2527674 -0.171974E-05  0.571E-03    5.92       6.2  T
   5    -14.2527674 -0.275136E-07  0.175E-03    5.92      20.3  T
   6    -14.2527674 -0.124771E-08  0.792E-04    5.92      44.6  T
   7    -14.2527674 -0.403809E-09  0.159E-04    5.92     222.3  T
     SCC iter.                  ...        0 min,  0.001 sec
     gradient                   ...        0 min,  0.001 sec
 * total energy  :   -14.0964521 Eh     change       -0.4939997E-03 Eh
   gradient norm :     0.0110682 Eh/α   predicted    -0.4896852E-03 (  -0.87%)
   displ. norm   :     0.1025581 α      lambda       -0.4447080E-03
   maximum displ.:     0.0800930 α      in ANC's #1, #4, #9, ...

........................................................................
.............................. CYCLE    4 ..............................
........................................................................
   1    -14.2529954 -0.142530E+02  0.114E-01    6.00       0.0  T
   2    -14.2530085 -0.130604E-04  0.613E-02    5.98       1.0  T
   3    -14.2530093 -0.841053E-06  0.243E-02    5.99       1.5  T
   4    -14.2530098 -0.467618E-06  0.552E-03    5.98       6.4  T
   5    -14.2530099 -0.468369E-07  0.232E-03    5.99      15.3  T
   6    -14.2530099 -0.467733E-08  0.708E-04    5.99      50.0  T
   7    -14.2530099 -0.245731E-09  0.905E-05    5.99     390.5  T
     SCC iter.                  ...        0 min,  0.001 sec
     gradient                   ...        0 min,  0.000 sec
 * total energy  :   -14.0967506 Eh     change       -0.2984995E-03 Eh
   gradient norm :     0.0115249 Eh/α   predicted    -0.2246959E-03 ( -24.72%)
   displ. norm   :     0.0805891 α      lambda       -0.3194288E-03
   maximum displ.:     0.0554863 α      in ANC's #4, #9, #1, ...

........................................................................
.............................. CYCLE    5 ..............................
........................................................................
   1    -14.2528051 -0.142528E+02  0.120E-01    6.03       0.0  T
   2    -14.2528142 -0.911701E-05  0.662E-02    6.02       1.0  T
   3    -14.2528152 -0.104735E-05  0.186E-02    6.02       1.9  T
   4    -14.2528155 -0.266909E-06  0.568E-03    6.01       6.2  T
   5    -14.2528155 -0.364059E-07  0.217E-03    6.02      16.3  T
   6    -14.2528155 -0.673581E-08  0.779E-04    6.02      45.4  T
   7    -14.2528155 -0.263597E-09  0.109E-04    6.02     324.2  T
     SCC iter.                  ...        0 min,  0.001 sec
     gradient                   ...        0 min,  0.000 sec
 * total energy  :   -14.0969702 Eh     change       -0.2196560E-03 Eh
   gradient norm :     0.0067449 Eh/α   predicted    -0.1607533E-03 ( -26.82%)
   displ. norm   :     0.0623832 α      lambda       -0.1522655E-03
   maximum displ.:     0.0459565 α      in ANC's #4, #9, #12, ...

........................................................................
.............................. CYCLE    6 ..............................
........................................................................
   1    -14.2538603 -0.142539E+02  0.994E-02    6.07       0.0  T
   2    -14.2538646 -0.424612E-05  0.553E-02    6.06       1.0  T
   3    -14.2538651 -0.560988E-06  0.136E-02    6.06       2.6  T
   4    -14.2538654 -0.306152E-06  0.448E-03    6.06       7.9  T
   5    -14.2538655 -0.207815E-07  0.157E-03    6.06      22.5  T
   6    -14.2538655 -0.220111E-08  0.609E-04    6.06      58.0  T
   7    -14.2538655 -0.204304E-09  0.106E-04    6.06     334.1  T
     SCC iter.                  ...        0 min,  0.005 sec
     gradient                   ...        0 min,  0.001 sec
 * total energy  :   -14.0970740 Eh     change       -0.1037794E-03 Eh
   gradient norm :     0.0033032 Eh/α   predicted    -0.7643053E-04 ( -26.35%)
   displ. norm   :     0.0533898 α      lambda       -0.6532225E-04
   maximum displ.:     0.0391433 α      in ANC's #4, #9, #12, ...

........................................................................
.............................. CYCLE    7 ..............................
........................................................................
   1    -14.2547749 -0.142548E+02  0.839E-02    6.11       0.0  T
   2    -14.2547776 -0.272168E-05  0.471E-02    6.10       1.0  T
   3    -14.2547779 -0.314383E-06  0.115E-02    6.11       3.1  T
   4    -14.2547782 -0.319020E-06  0.352E-03    6.10      10.0  T
   5    -14.2547783 -0.101310E-07  0.119E-03    6.10      29.8  T
   6    -14.2547783 -0.921855E-09  0.460E-04    6.10      76.8  T
   7    -14.2547783 -0.140336E-09  0.953E-05    6.10     370.9  T
     SCC iter.                  ...        0 min,  0.008 sec
     gradient                   ...        0 min,  0.002 sec
 * total energy  :   -14.0971197 Eh     change       -0.4567626E-04 Eh
   gradient norm :     0.0022519 Eh/α   predicted    -0.3275435E-04 ( -28.29%)
   displ. norm   :     0.0415170 α      lambda       -0.2804397E-04
   maximum displ.:     0.0299436 α      in ANC's #4, #9, #12, ...

........................................................................
.............................. CYCLE    8 ..............................
........................................................................
   1    -14.2555029 -0.142555E+02  0.614E-02    6.14       0.0  T
   2    -14.2555040 -0.101706E-05  0.349E-02    6.13       1.0  T
   3    -14.2555041 -0.189684E-06  0.625E-03    6.14       5.7  T
   4    -14.2555043 -0.115964E-06  0.240E-03    6.13      14.8  T
   5    -14.2555043 -0.403415E-08  0.674E-04    6.13      52.5  T
   6    -14.2555043 -0.315421E-09  0.272E-04    6.13     130.0  T
     SCC iter.                  ...        0 min,  0.002 sec
     gradient                   ...        0 min,  0.001 sec
 * total energy  :   -14.0971382 Eh     change       -0.1855504E-04 Eh
   gradient norm :     0.0011826 Eh/α   predicted    -0.1404776E-04 ( -24.29%)
   displ. norm   :     0.0369565 α      lambda       -0.6396019E-05
   maximum displ.:     0.0264284 α      in ANC's #4, #9, #12, ...

........................................................................
.............................. CYCLE    9 ..............................
........................................................................
   1    -14.2557906 -0.142558E+02  0.531E-02    6.16       0.0  T
   2    -14.2557912 -0.632107E-06  0.302E-02    6.16       1.2  T
   3    -14.2557914 -0.159680E-06  0.461E-03    6.16       7.7  T
   4    -14.2557914 -0.664704E-07  0.198E-03    6.16      17.9  T
   5    -14.2557914 -0.224184E-08  0.449E-04    6.16      78.7  T
   6    -14.2557914 -0.149427E-09  0.102E-04    6.16     348.1  T
     SCC iter.                  ...        0 min,  0.001 sec
     gradient                   ...        0 min,  0.000 sec
 * total energy  :   -14.0971425 Eh     change       -0.4228221E-05 Eh
   gradient norm :     0.0007037 Eh/α   predicted    -0.3201252E-05 ( -24.29%)
   displ. norm   :     0.0023016 α      lambda       -0.5825606E-06
   maximum displ.:     0.0016006 α      in ANC's #1, #10, #2, ...

   *** GEOMETRY OPTIMIZATION CONVERGED AFTER 9 ITERATIONS ***

------------------------------------------------------------------------
 total energy gain   :        -0.0040785 Eh       -2.5593 kcal/mol
 total RMSD          :         0.1632870 a0        0.0864 Å
 total power (kW/mol):        -1.1897996 (step) -185.6625 (real)
------------------------------------------------------------------------

 ANCopt (total)                0 d,  0 h,  0 min,  0.058 sec
 optimizer setup                ...        0 min,  0.000 sec (  0.404%)
 model hessian                  ...        0 min,  0.009 sec ( 16.124%)
 ANC generation                 ...        0 min,  0.000 sec (  0.395%)
 coordinate transformation      ...        0 min,  0.000 sec (  0.104%)
 single point calculation       ...        0 min,  0.045 sec ( 77.551%)
 optimization log               ...        0 min,  0.001 sec (  2.002%)
 hessian update                 ...        0 min,  0.000 sec (  0.415%)
 rational function              ...        0 min,  0.001 sec (  1.826%)

================
 final structure:
================
8
 xtb: 6.5.1 (b24c23e)
C            0.38568848751912        4.16023803097787        3.49697378574670
N            0.49247225008182        3.54386161599771        2.28281262533156
H            0.47347170637188        2.54024099948787        2.27029263141395
H            0.78252596027186        4.02888888143124        1.45442366981314
N            0.49588129539807        5.52076432114791        3.45054905148885
H            0.78390964772466        6.01190375720196        2.62508634060387
H            0.47708311476176        6.01670193179448        4.32320298199236
O            0.16896753787083        3.55540046196096        4.52165891360956

 Bond Distances (Angstroems)
 ---------------------------
C1-N2=1.3658         C1-N5=1.3658         C1-O8=1.2095         N2-C1=1.3658         N2-H3=1.0039         N2-H4=1.0028         
H3-N2=1.0039         H4-N2=1.0028         N5-C1=1.3658         N5-H6=1.0028         N5-H7=1.0039         H6-N5=1.0028         
H7-N5=1.0039         O8-C1=1.2095         
 N  H  Rav=1.0033 sigma=0.0006  Rmin=1.0028  Rmax=1.0039     4
 N  C  Rav=1.3658 sigma=0.0000  Rmin=1.3658  Rmax=1.3658     2
 O  C  Rav=1.2095 sigma=0.0000  Rmin=1.2095  Rmax=1.2095     1

 selected bond angles (degree)
 --------------------
N5-C1-N2=114.39                O8-C1-N2=122.78                O8-C1-N5=122.78                H3-N2-C1=117.44                
H4-N2-C1=122.59                H4-N2-H3=118.60                H6-N5-C1=122.62                H7-N5-C1=117.45                
H7-N5-H6=118.62                

 selected dihedral angles (degree)
 ---------------------------------
H3-N2-C1-N5=176.41            H3-N2-C1-O8=354.16            H4-N2-C1-N5=  9.96            H4-N2-C1-O8=187.71            
H6-N5-C1-N2=350.18            H6-N5-C1-O8=172.43            H7-N5-C1-N2=183.43            H7-N5-C1-O8=  5.68            
           -------------------------------------------------
          |                Final Singlepoint                |
           -------------------------------------------------

          ...................................................
          :                      SETUP                      :
          :.................................................:
          :  # basis functions                  20          :
          :  # atomic orbitals                  20          :
          :  # shells                           12          :
          :  # electrons                        24          :
          :  max. iterations                   250          :
          :  Hamiltonian                  GFN2-xTB          :
          :  restarted?                      false          :
          :  GBSA solvation                  false          :
          :  PC potential                    false          :
          :  electronic temp.          300.0000000     K    :
          :  accuracy                    1.0000000          :
          :  -> integral cutoff          0.2500000E+02      :
          :  -> integral neglect         0.1000000E-07      :
          :  -> SCF convergence          0.1000000E-05 Eh   :
          :  -> wf. convergence          0.1000000E-03 e    :
          :  Broyden damping             0.4000000          :
          ...................................................

 iter      E             dE          RMSdq      gap      omega  full diag
   1    -14.2557914 -0.142558E+02  0.523E-05    6.16       0.0  T
   2    -14.2557914 -0.609290E-12  0.334E-05    6.16    1058.2  T
   3    -14.2557914 -0.344613E-12  0.328E-06    6.16   10772.4  T

   *** convergence criteria satisfied after 3 iterations ***

         #    Occupation            Energy/Eh            Energy/eV
      -------------------------------------------------------------
         1        2.0000           -0.6915538             -18.8181
       ...           ...                  ...                  ...
         6        2.0000           -0.5591763             -15.2160
         7        2.0000           -0.5352174             -14.5640
         8        2.0000           -0.5162056             -14.0467
         9        2.0000           -0.4923278             -13.3969
        10        2.0000           -0.4114549             -11.1963
        11        2.0000           -0.4077755             -11.0961
        12        2.0000           -0.3964741             -10.7886 (HOMO)
        13                         -0.1701207              -4.6292 (LUMO)
        14                         -0.0112013              -0.3048
        15                          0.0615785               1.6756
        16                          0.1829120               4.9773
        17                          0.2094372               5.6991
       ...                                ...                  ...
        20                          0.6726851              18.3047
      -------------------------------------------------------------
                  HL-Gap            0.2263535 Eh            6.1594 eV
             Fermi-level           -0.2832974 Eh           -7.7089 eV

 SCC (total)                   0 d,  0 h,  0 min,  0.002 sec
 SCC setup                      ...        0 min,  0.000 sec (  7.902%)
 Dispersion                     ...        0 min,  0.000 sec (  1.736%)
 classical contributions        ...        0 min,  0.000 sec (  0.469%)
 integral evaluation            ...        0 min,  0.000 sec ( 12.948%)
 iterations                     ...        0 min,  0.001 sec ( 45.258%)
 molecular gradient             ...        0 min,  0.000 sec ( 22.072%)
 printout                       ...        0 min,  0.000 sec (  7.969%)

         :::::::::::::::::::::::::::::::::::::::::::::::::::::
         ::                     SUMMARY                     ::
         :::::::::::::::::::::::::::::::::::::::::::::::::::::
         :: total energy             -14.097142459981 Eh    ::
         :: gradient norm              0.000703726070 Eh/a0 ::
         :: HOMO-LUMO gap              6.159391400841 eV    ::
         ::.................................................::
         :: SCC energy               -14.255791430469 Eh    ::
         :: -> isotropic ES            0.055898848614 Eh    ::
         :: -> anisotropic ES          0.004330601200 Eh    ::
         :: -> anisotropic XC          0.002810434641 Eh    ::
         :: -> dispersion             -0.002980045995 Eh    ::
         :: repulsion energy           0.158648521080 Eh    ::
         :: add. restraining           0.000000000000 Eh    ::
         :: total charge               0.000000000000 e     ::
         :::::::::::::::::::::::::::::::::::::::::::::::::::::

           ------------------------------------------------- 
          |                Numerical Hessian                |
           ------------------------------------------------- 
step length          :   0.00500
SCC accuracy         :   0.30000
Hessian scale factor :   1.00000
frozen atoms in %    :   0.00000    0
RMS gradient         :   0.00070
estimated CPU  time      0.00 min
estimated wall time      0.00 min

writing file <hessian>.

 projected vibrational frequencies (cm⁻¹)
eigval :       -0.00    -0.00    -0.00     0.00     0.00     0.00
eigval :     -247.10   179.44   435.64   445.24   499.87   520.98
eigval :      674.27   939.59   978.81  1076.38  1320.48  1454.40
eigval :     1474.04  1771.84  3499.59  3503.29  3568.85  3574.70
           -------------------------------------------------
          |                Property Printout                |
           -------------------------------------------------

    * Orbital Energies and Occupations

         #    Occupation            Energy/Eh            Energy/eV
      -------------------------------------------------------------
         1        2.0000           -0.6915538             -18.8181
         2        2.0000           -0.6575749             -17.8935
         3        2.0000           -0.6393293             -17.3970
         4        2.0000           -0.5910531             -16.0834
         5        2.0000           -0.5695672             -15.4987
         6        2.0000           -0.5591763             -15.2160
         7        2.0000           -0.5352173             -14.5640
         8        2.0000           -0.5162056             -14.0467
         9        2.0000           -0.4923278             -13.3969
        10        2.0000           -0.4114549             -11.1963
        11        2.0000           -0.4077754             -11.0961
        12        2.0000           -0.3964741             -10.7886 (HOMO)
        13                         -0.1701206              -4.6292 (LUMO)
        14                         -0.0112013              -0.3048
        15                          0.0615785               1.6756
        16                          0.1829120               4.9773
        17                          0.2094372               5.6991
        18                          0.2640929               7.1863
        19                          0.4186025              11.3908
        20                          0.6726851              18.3047
      -------------------------------------------------------------
                  HL-Gap            0.2263535 Eh            6.1594 eV
             Fermi-level           -0.2832974 Eh           -7.7089 eV

     #   Z          covCN         q      C6AA      α(0)
     1   6 C        2.675     0.345    21.132     7.522
     2   7 N        2.645    -0.301    27.741     7.822
     3   1 H        0.861     0.192     1.146     1.677
     4   1 H        0.861     0.170     1.271     1.766
     5   7 N        2.645    -0.300    27.740     7.822
     6   1 H        0.861     0.170     1.271     1.766
     7   1 H        0.861     0.192     1.146     1.677
     8   8 O        0.860    -0.470    23.124     6.447

 Mol. C6AA /au·bohr⁶  :        589.282895
 Mol. C8AA /au·bohr⁸  :      12281.787315
 Mol. α(0) /au        :         36.500091


Wiberg/Mayer (AO) data.
largest (>0.10) Wiberg bond orders for each atom

 ---------------------------------------------------------------------------
     #   Z sym  total        # sym  WBO       # sym  WBO       # sym  WBO
 ---------------------------------------------------------------------------
     1   6 C    3.959 --     8 O    1.622     5 N    1.168     2 N    1.168
     2   7 N    3.290 --     1 C    1.168     4 H    0.952     3 H    0.947
                             8 O    0.152
     3   1 H    0.963 --     2 N    0.947
     4   1 H    0.971 --     2 N    0.952
     5   7 N    3.291 --     1 C    1.168     6 H    0.952     7 H    0.947
                             8 O    0.153
     6   1 H    0.971 --     5 N    0.952
     7   1 H    0.963 --     5 N    0.947
     8   8 O    1.961 --     1 C    1.622     5 N    0.153     2 N    0.152
 ---------------------------------------------------------------------------

Topologies differ in total number of bonds
Writing topology from bond orders to xtbtopo.mol

molecular dipole:
                 x           y           z       tot (Debye)
 q only:        0.390       0.754      -1.277
   full:        0.588       0.921      -1.560       4.841
molecular quadrupole (traceless):
                xx          xy          yy          xz          yz          zz
 q only:        0.972       5.613      22.640       2.157      -4.728     -23.612
  q+dip:        1.023       8.391      27.786       3.364      -5.698     -28.809
   full:        1.305       8.358      27.645       3.418      -5.697     -28.950

           -------------------------------------------------
          |                Geometry Summary                 |
           -------------------------------------------------

      molecular mass/u    :       60.0553102
   center of mass at/Å    :        0.3949422       4.2055067       3.4203108
  moments of inertia/u·Å² :        0.4447521E+02   0.4784067E+02   0.9224917E+02
rotational constants/cm⁻¹ :        0.3790344E+00   0.3523703E+00   0.1827402E+00

 * 7 selected distances

     #   Z          #   Z                                           value/Å
     1   6 C        2   7 N                                       1.3658369 (max)
     2   7 N        3   1 H                                       1.0038786
     2   7 N        4   1 H                                       1.0028016
     1   6 C        5   7 N                                       1.3657708
     5   7 N        6   1 H                                       1.0027797 (min)
     5   7 N        7   1 H                                       1.0039086
     1   6 C        8   8 O                                       1.2094529

 * 3 distinct bonds (by element types)

   Z      Z             #   av. dist./Å        max./Å        min./Å
   1 H    7 N           4     1.0033421     1.0039086     1.0027797
   6 C    7 N           2     1.3658038     1.3658369     1.3657708
   6 C    8 O           1     1.2094529     1.2094529     1.2094529

           -------------------------------------------------
          |               Frequency Printout                |
           -------------------------------------------------
 projected vibrational frequencies (cm⁻¹)
eigval :       -0.00    -0.00    -0.00     0.00     0.00     0.00
eigval :     -247.10   179.44   435.64   445.24   499.87   520.98
eigval :      674.27   939.59   978.81  1076.38  1320.48  1454.40
eigval :     1474.04  1771.84  3499.59  3503.29  3568.85  3574.70
 reduced masses (amu)
   1: 13.59   2: 11.90   3: 12.66   4: 13.65   5: 13.30   6: 11.60   7:  3.51   8:  3.85
   9:  1.69  10:  8.41  11:  1.60  12: 11.17  13: 11.98  14:  5.38  15:  9.52  16:  8.83
  17:  7.52  18:  3.12  19:  6.62  20: 13.03  21:  1.43  22:  1.45  23:  2.20  24:  2.18
 IR intensities (km·mol⁻¹)
   1:  2.05   2:  7.03   3:  0.95   4: 12.65   5:  0.67   6:  9.82   7: 15.69   8:527.44
   9:  1.39  10:  6.68  11: 60.21  12: 17.63  13: 50.68  14:  0.45  15:  0.71  16: 14.20
  17:228.31  18:  8.24  19:375.41  20:642.18  21: 25.08  22:  1.44  23: 12.39  24:  3.38
 Raman intensities (amu)
   1:  0.00   2:  0.00   3:  0.00   4:  0.00   5:  0.00   6:  0.00   7:  0.00   8:  0.00
   9:  0.00  10:  0.00  11:  0.00  12:  0.00  13:  0.00  14:  0.00  15:  0.00  16:  0.00
  17:  0.00  18:  0.00  19:  0.00  20:  0.00  21:  0.00  22:  0.00  23:  0.00  24:  0.00
 output can be read by thermo (or use thermo option).
 writing <g98.out> molden fake output.
 recommended (thermochemical) frequency scaling factor: 1.0
           -------------------------------------------------
          |             Thermodynamic Functions             |
           -------------------------------------------------

Refinement of some symmetry elements was terminated before convergence was reached.
Some symmetry elements may remain unidentified.
Molecule has the following symmetry elements: (sigma) 
It seems to be the Cs point group
cs  symmetry found (for desy threshold:  0.10E+00) used in thermo

          ...................................................
          :                      SETUP                      :
          :.................................................:
          :  # frequencies                          17      :
          :  # imaginary freq.                       1      :
          :  linear?                             false      :
          :  only rotor calc.                    false      :
          :  symmetry                               cs      :
          :  rotational number                       1      :
          :  scaling factor                  1.0000000      :
          :  rotor cutoff                   50.0000000 cm⁻¹ :
          :  imag. cutoff                  -20.0000000 cm⁻¹ :
          :.................................................:

    mode    ω/cm⁻¹     T·S(HO)/kcal·mol⁻¹    T·S(FR)/kcal·mol⁻¹   T·S(vib)
   ------------------------------------------------------------------------
       1    179.44    -0.69594 ( 99.40%)    -0.67755 (  0.60%)    -0.69583
   ------------------------------------------------------------------------

   temp. (K)  partition function   enthalpy   heat capacity  entropy
                                   cal/mol     cal/K/mol   cal/K/mol   J/K/mol
 298.15  VIB   2.85                 1149.363      9.446      5.935
         ROT  0.338E+05              888.752      2.981     23.707
         INT  0.964E+05             2038.115     12.427     29.642
         TR   0.450E+27             1481.254      4.968     38.181
         TOT                        3519.3694    17.3948    67.8230   283.7713

       T/K    H(0)-H(T)+PV         H(T)/Eh          T*S/Eh         G(T)/Eh
   ------------------------------------------------------------------------
    298.15    0.560847E-02    0.646527E-01    0.322249E-01    0.324278E-01
   ------------------------------------------------------------------------

         :::::::::::::::::::::::::::::::::::::::::::::::::::::
         ::                  THERMODYNAMIC                  ::
         :::::::::::::::::::::::::::::::::::::::::::::::::::::
         :: total free energy         -14.064714682668 Eh   ::
         ::.................................................::
         :: total energy              -14.097142459981 Eh   ::
         :: zero point energy           0.059044187615 Eh   ::
         :: G(RRHO) w/o ZPVE           -0.026616410303 Eh   ::
         :: G(RRHO) contrib.            0.032427777313 Eh   ::
         :::::::::::::::::::::::::::::::::::::::::::::::::::::
imag cut-off (cm-1) :    5.00
 found            1  significant imaginary frequency
 writing imag mode distorted coords to xtbhess.xyz
 for further optimization.

optimized geometry written to: xtbopt.xyz


           -------------------------------------------------
          | TOTAL ENERGY              -14.097142459981 Eh   |
          | TOTAL ENTHALPY            -14.032489800197 Eh   |
          | TOTAL FREE ENERGY         -14.064714682668 Eh   |
          | GRADIENT NORM               0.000703728559 Eh/α |
          | HOMO-LUMO GAP               6.159391582290 eV   |
           -------------------------------------------------

------------------------------------------------------------------------
 * finished run on 2022/12/22 at 11:48:17.069     
------------------------------------------------------------------------
 total:
 * wall-time:     0 d,  0 h,  0 min,  0.205 sec
 *  cpu-time:     0 d,  0 h,  0 min,  0.562 sec
 * ratio c/w:     2.747 speedup
 SCF:
 * wall-time:     0 d,  0 h,  0 min,  0.026 sec
 *  cpu-time:     0 d,  0 h,  0 min,  0.031 sec
 * ratio c/w:     1.187 speedup
 ANC optimizer:
 * wall-time:     0 d,  0 h,  0 min,  0.070 sec
 *  cpu-time:     0 d,  0 h,  0 min,  0.172 sec
 * ratio c/w:     2.440 speedup
 analytical hessian:
 * wall-time:     0 d,  0 h,  0 min,  0.028 sec
 *  cpu-time:     0 d,  0 h,  0 min,  0.125 sec
 * ratio c/w:     4.543 speedup

