
                                 *****************
                                 * O   R   C   A *
                                 *****************

                                            #,                                       
                                            ###                                      
                                            ####                                     
                                            #####                                    
                                            ######                                   
                                           ########,                                 
                                     ,,################,,,,,                         
                               ,,#################################,,                 
                          ,,##########################################,,             
                       ,#########################################, ''#####,          
                    ,#############################################,,   '####,        
                  ,##################################################,,,,####,       
                ,###########''''           ''''###############################       
              ,#####''   ,,,,##########,,,,          '''####'''          '####       
            ,##' ,,,,###########################,,,                        '##       
           ' ,,###''''                  '''############,,,                           
         ,,##''                                '''############,,,,        ,,,,,,###''
      ,#''                                            '''#######################'''  
     '                                                          ''''####''''         
             ,#######,   #######,   ,#######,      ##                                
            ,#'     '#,  ##    ##  ,#'     '#,    #''#        ######   ,####,        
            ##       ##  ##   ,#'  ##            #'  '#       #        #'  '#        
            ##       ##  #######   ##           ,######,      #####,   #    #        
            '#,     ,#'  ##    ##  '#,     ,#' ,#      #,         ##   #,  ,#        
             '#######'   ##     ##  '#######'  #'      '#     #####' # '####'        



                  #######################################################
                  #                        -***-                        #
                  #          Department of theory and spectroscopy      #
                  #    Directorship and core code : Frank Neese         #
                  #        Max Planck Institute fuer Kohlenforschung    #
                  #                Kaiser Wilhelm Platz 1               #
                  #                 D-45470 Muelheim/Ruhr               #
                  #                      Germany                        #
                  #                                                     #
                  #                  All rights reserved                #
                  #                        -***-                        #
                  #######################################################


                         Program Version 5.0.4 -  RELEASE  -


 With contributions from (in alphabetic order):
   Daniel Aravena         : Magnetic Suceptibility
   Michael Atanasov       : Ab Initio Ligand Field Theory (pilot matlab implementation)
   Alexander A. Auer      : GIAO ZORA, VPT2 properties, NMR spectrum
   Ute Becker             : Parallelization
   Giovanni Bistoni       : ED, misc. LED, open-shell LED, HFLD
   Martin Brehm           : Molecular dynamics
   Dmytro Bykov           : SCF Hessian
   Vijay G. Chilkuri      : MRCI spin determinant printing, contributions to CSF-ICE
   Dipayan Datta          : RHF DLPNO-CCSD density
   Achintya Kumar Dutta   : EOM-CC, STEOM-CC
   Dmitry Ganyushin       : Spin-Orbit,Spin-Spin,Magnetic field MRCI
   Miquel Garcia          : C-PCM and meta-GGA Hessian, CC/C-PCM, Gaussian charge scheme
   Yang Guo               : DLPNO-NEVPT2, F12-NEVPT2, CIM, IAO-localization
   Andreas Hansen         : Spin unrestricted coupled pair/coupled cluster methods
   Benjamin Helmich-Paris : MC-RPA, TRAH-SCF, COSX integrals
   Lee Huntington         : MR-EOM, pCC
   Robert Izsak           : Overlap fitted RIJCOSX, COSX-SCS-MP3, EOM
   Marcus Kettner         : VPT2
   Christian Kollmar      : KDIIS, OOCD, Brueckner-CCSD(T), CCSD density, CASPT2, CASPT2-K
   Simone Kossmann        : Meta GGA functionals, TD-DFT gradient, OOMP2, MP2 Hessian
   Martin Krupicka        : Initial AUTO-CI
   Lucas Lang             : DCDCAS
   Marvin Lechner         : AUTO-CI (C++ implementation), FIC-MRCC
   Dagmar Lenk            : GEPOL surface, SMD
   Dimitrios Liakos       : Extrapolation schemes; Compound Job, initial MDCI parallelization
   Dimitrios Manganas     : Further ROCIS development; embedding schemes
   Dimitrios Pantazis     : SARC Basis sets
   Anastasios Papadopoulos: AUTO-CI, single reference methods and gradients
   Taras Petrenko         : DFT Hessian,TD-DFT gradient, ASA, ECA, R-Raman, ABS, FL, XAS/XES, NRVS
   Peter Pinski           : DLPNO-MP2, DLPNO-MP2 Gradient
   Christoph Reimann      : Effective Core Potentials
   Marius Retegan         : Local ZFS, SOC
   Christoph Riplinger    : Optimizer, TS searches, QM/MM, DLPNO-CCSD(T), (RO)-DLPNO pert. Triples
   Tobias Risthaus        : Range-separated hybrids, TD-DFT gradient, RPA, STAB
   Michael Roemelt        : Original ROCIS implementation
   Masaaki Saitow         : Open-shell DLPNO-CCSD energy and density
   Barbara Sandhoefer     : DKH picture change effects
   Avijit Sen             : IP-ROCIS
   Kantharuban Sivalingam : CASSCF convergence, NEVPT2, FIC-MRCI
   Bernardo de Souza      : ESD, SOC TD-DFT
   Georgi Stoychev        : AutoAux, RI-MP2 NMR, DLPNO-MP2 response
   Willem Van den Heuvel  : Paramagnetic NMR
   Boris Wezisla          : Elementary symmetry handling
   Frank Wennmohs         : Technical directorship


 We gratefully acknowledge several colleagues who have allowed us to
 interface, adapt or use parts of their codes:
   Stefan Grimme, W. Hujo, H. Kruse, P. Pracht,  : VdW corrections, initial TS optimization,
                  C. Bannwarth, S. Ehlert          DFT functionals, gCP, sTDA/sTD-DF
   Ed Valeev, F. Pavosevic, A. Kumar             : LibInt (2-el integral package), F12 methods
   Garnet Chan, S. Sharma, J. Yang, R. Olivares  : DMRG
   Ulf Ekstrom                                   : XCFun DFT Library
   Mihaly Kallay                                 : mrcc  (arbitrary order and MRCC methods)
   Jiri Pittner, Ondrej Demel                    : Mk-CCSD
   Frank Weinhold                                : gennbo (NPA and NBO analysis)
   Christopher J. Cramer and Donald G. Truhlar   : smd solvation model
   Lars Goerigk                                  : TD-DFT with DH, B97 family of functionals
   V. Asgeirsson, H. Jonsson                     : NEB implementation
   FAccTs GmbH                                   : IRC, NEB, NEB-TS, DLPNO-Multilevel, CI-OPT
                                                   MM, QMMM, 2- and 3-layer-ONIOM, Crystal-QMMM,
                                                   LR-CPCM, SF, NACMEs, symmetry and pop. for TD-DFT,
                                                   nearIR, NL-DFT gradient (VV10), updates on ESD,
                                                   ML-optimized integration grids
   S Lehtola, MJT Oliveira, MAL Marques          : LibXC Library
   Liviu Ungur et al                             : ANISO software


 Your calculation uses the libint2 library for the computation of 2-el integrals
 For citations please refer to: http://libint.valeyev.net

 Your ORCA version has been built with support for libXC version: 5.1.0
 For citations please refer to: https://tddft.org/programs/libxc/

 This ORCA versions uses:
   CBLAS   interface :  Fast vector & matrix operations
   LAPACKE interface :  Fast linear algebra routines
   SCALAPACK package :  Parallel linear algebra routines
   Shared memory     :  Shared parallel matrices
   BLAS/LAPACK       :  OpenBLAS 0.3.15  USE64BITINT DYNAMIC_ARCH NO_AFFINITY SkylakeX SINGLE_THREADED
        Core in use  :  SkylakeX
   Copyright (c) 2011-2014, The OpenBLAS Project




***************************************
The coordinates will be read from file: CO2.xyz
***************************************


================================================================================

----- Orbital basis set information -----
Your calculation utilizes the basis: def2-SVP
   F. Weigend and R. Ahlrichs, Phys. Chem. Chem. Phys. 7, 3297 (2005).

----- AuxJ basis set information -----
Your calculation utilizes the auxiliary basis: def2/J
   F. Weigend, Phys. Chem. Chem. Phys. 8, 1057 (2006).

================================================================================
                                        WARNINGS
                       Please study these warnings very carefully!
================================================================================



WARNING: Found flag for RIJCOSX approximation but no HF exchange needed!
  ===> : RIJCOSX  will be disabled and Split-RI-J is turned on

WARNING: The environment variable RSH_COMMAND is not set!
  ===> : All Displacements for the Numerical Hessian or Gradient calculation
         will be started on localhost

WARNING: Geometry Optimization
  ===> : Switching off AutoStart
         For restart on a previous wavefunction, please use MOREAD

INFO   : the flag for use of the SHARK integral package has been found!

================================================================================
                                       INPUT FILE
================================================================================
NAME = CO2_IR_2nd_order.inp
|  1> !PBE def2-SVP RIJCOSX def2/J TightOPT NearIR NumFreq
|  2> 
|  3> %elprop
|  4> 	Polar 1
|  5> end
|  6> 
|  7> %pal
|  8> 	nprocs 4
|  9> end
| 10> 
| 11> %maxcore 350
| 12> 
| 13> *xyzfile 0 1 CO2.xyz
| 14> 
| 15> 
| 16> 
| 17>                          ****END OF INPUT****
================================================================================

                       *****************************
                       * Geometry Optimization Run *
                       *****************************

Geometry optimization settings:
Update method            Update   .... BFGS
Choice of coordinates    CoordSys .... Z-matrix Internals
Initial Hessian          InHess   .... Almoef's Model

Convergence Tolerances:
Energy Change            TolE     ....  1.0000e-06 Eh
Max. Gradient            TolMAXG  ....  1.0000e-04 Eh/bohr
RMS Gradient             TolRMSG  ....  3.0000e-05 Eh/bohr
Max. Displacement        TolMAXD  ....  1.0000e-03 bohr
RMS Displacement         TolRMSD  ....  6.0000e-04 bohr
Strict Convergence                ....  False
------------------------------------------------------------------------------
                        ORCA OPTIMIZATION COORDINATE SETUP
------------------------------------------------------------------------------

The optimization will be done in new redundant internal coordinates
Making redundant internal coordinates   ...  (new redundants) done
Evaluating the initial hessian          ...  (Almloef) done
Evaluating the coordinates              ...  done
Calculating the B-matrix                .... done
Calculating the G-matrix                .... done
Diagonalizing the G-matrix              .... done
The first mode is                       ....    0
The number of degrees of freedom        ....    4

    -----------------------------------------------------------------
                    Redundant Internal Coordinates


    -----------------------------------------------------------------
         Definition                    Initial Value    Approx d2E/dq
    -----------------------------------------------------------------
      1. B(O   1,C   0)                  1.1964         1.139768   
      2. B(O   2,C   0)                  1.1964         1.139446   
      3. L(O   1,C   0,O   2, 2)       180.0000         0.536091   
      4. L(O   1,C   0,O   2, 1)       180.0012         0.536091   
    -----------------------------------------------------------------

Number of atoms                         .... 3
Number of degrees of freedom            .... 4

         *************************************************************
         *                GEOMETRY OPTIMIZATION CYCLE   1            *
         *************************************************************
---------------------------------
CARTESIAN COORDINATES (ANGSTROEM)
---------------------------------
  C     -5.735400   -0.751770   -0.000000
  O     -5.481100    0.417250   -0.000000
  O     -5.989740   -1.920860   -0.000000

----------------------------
CARTESIAN COORDINATES (A.U.)
----------------------------
  NO LB      ZA    FRAG     MASS         X           Y           Z
   0 C     6.0000    0    12.011  -10.838335   -1.420639   -0.000000
   1 O     8.0000    0    15.999  -10.357778    0.788488   -0.000000
   2 O     8.0000    0    15.999  -11.318968   -3.629899   -0.000000

--------------------------------
INTERNAL COORDINATES (ANGSTROEM)
--------------------------------
 C      0   0   0     0.000000000000     0.00000000     0.00000000
 O      1   0   0     1.196359582400     0.00000000     0.00000000
 O      1   2   0     1.196436485443   179.99884078     0.00000000

---------------------------
INTERNAL COORDINATES (A.U.)
---------------------------
 C      0   0   0     0.000000000000     0.00000000     0.00000000
 O      1   0   0     2.260791968428     0.00000000     0.00000000
 O      1   2   0     2.260937294119   179.99884078     0.00000000

---------------------
BASIS SET INFORMATION
---------------------
There are 2 groups of distinct atoms

 Group   1 Type C   : 7s4p1d contracted to 3s2p1d pattern {511/31/1}
 Group   2 Type O   : 7s4p1d contracted to 3s2p1d pattern {511/31/1}

Atom   0C    basis set group =>   1
Atom   1O    basis set group =>   2
Atom   2O    basis set group =>   2
---------------------------------
AUXILIARY/J BASIS SET INFORMATION
---------------------------------
There are 2 groups of distinct atoms

 Group   1 Type C   : 12s5p4d2f1g contracted to 6s4p3d1f1g pattern {711111/2111/211/2/1}
 Group   2 Type O   : 12s5p4d2f1g contracted to 6s4p3d1f1g pattern {711111/2111/211/2/1}

Atom   0C    basis set group =>   1
Atom   1O    basis set group =>   2
Atom   2O    basis set group =>   2


           ************************************************************
           *        Program running with 4 parallel MPI-processes     *
           *              working on a common directory               *
           ************************************************************
------------------------------------------------------------------------------
                           ORCA GTO INTEGRAL CALCULATION
                           -- RI-GTO INTEGRALS CHOSEN --
------------------------------------------------------------------------------
------------------------------------------------------------------------------
                   ___                                                        
                  /   \      - P O W E R E D   B Y -                         
                 /     \                                                     
                 |  |  |   _    _      __       _____    __    __             
                 |  |  |  | |  | |    /  \     |  _  \  |  |  /  |          
                  \  \/   | |  | |   /    \    | | | |  |  | /  /          
                 / \  \   | |__| |  /  /\  \   | |_| |  |  |/  /          
                |  |  |   |  __  | /  /__\  \  |    /   |      \           
                |  |  |   | |  | | |   __   |  |    \   |  |\   \          
                \     /   | |  | | |  |  |  |  | |\  \  |  | \   \       
                 \___/    |_|  |_| |__|  |__|  |_| \__\ |__|  \__/        
                                                                              
                      - O R C A' S   B I G   F R I E N D -                    
                                      &                                       
                       - I N T E G R A L  F E E D E R -                       
                                                                              
 v1 FN, 2020, v2 2021                                                         
------------------------------------------------------------------------------


Reading SHARK input file CO2_IR_2nd_order.SHARKINP.tmp ... ok
----------------------
SHARK INTEGRAL PACKAGE
----------------------

Number of atoms                             ...      3
Number of basis functions                   ...     42
Number of shells                            ...     18
Maximum angular momentum                    ...      2
Integral batch strategy                     ... SHARK/LIBINT Hybrid
RI-J (if used) integral strategy            ... SPLIT-RIJ (Revised 2003 algorithm where possible)
Printlevel                                  ...      1
Contraction scheme used                     ... SEGMENTED contraction
Coulomb Range Separation                    ... NOT USED
Exchange Range Separation                   ... NOT USED
Finite Nucleus Model                        ... NOT USED
Auxiliary Coulomb fitting basis             ... AVAILABLE
   # of basis functions in Aux-J            ...    147
   # of shells in Aux-J                     ...     45
   Maximum angular momentum in Aux-J        ...      4
Auxiliary J/K fitting basis                 ... NOT available
Auxiliary Correlation fitting basis         ... NOT available
Auxiliary 'external' fitting basis          ... NOT available
Integral threshold                          ...     2.500000e-11
Primitive cut-off                           ...     2.500000e-12
Primitive pair pre-selection threshold      ...     2.500000e-12

Calculating pre-screening integrals         ... done (  0.0 sec) Dimension = 18
Organizing shell pair data                  ... done (  0.0 sec)
Shell pair information
Total number of shell pairs                 ...       171
Shell pairs after pre-screening             ...       170
Total number of primitive shell pairs       ...       705
Primitive shell pairs kept                  ...       602
          la=0 lb=0:     44 shell pairs
          la=1 lb=0:     54 shell pairs
          la=1 lb=1:     21 shell pairs
          la=2 lb=0:     27 shell pairs
          la=2 lb=1:     18 shell pairs
          la=2 lb=2:      6 shell pairs

Calculating one electron integrals          ... done (  0.0 sec)
Calculating RI/J V-Matrix + Cholesky decomp.... done (  0.0 sec)
Calculating Nuclear repulsion               ... done (  0.0 sec) ENN=     56.615508213197 Eh

SHARK setup successfully completed in   0.1 seconds

Maximum memory used throughout the entire GTOINT-calculation: 8.9 MB


           ************************************************************
           *        Program running with 4 parallel MPI-processes     *
           *              working on a common directory               *
           ************************************************************
-------------------------------------------------------------------------------
                                 ORCA SCF
-------------------------------------------------------------------------------

------------
SCF SETTINGS
------------
Hamiltonian:
 Density Functional     Method          .... DFT(GTOs)
 Exchange Functional    Exchange        .... PBE
   PBE kappa parameter   XKappa         ....  0.804000
   PBE mue parameter    XMuePBE         ....  0.219520
 Correlation Functional Correlation     .... PBE
   PBE beta parameter  CBetaPBE         ....  0.066725
 LDA part of GGA corr.  LDAOpt          .... PW91-LDA
 Gradients option       PostSCFGGA      .... off
   Density functional embedding theory  .... OFF
   NL short-range parameter             ....  6.400000
 RI-approximation to the Coulomb term is turned on
   Number of AuxJ basis functions       .... 147


General Settings:
 Integral files         IntName         .... CO2_IR_2nd_order
 Hartree-Fock type      HFTyp           .... RHF
 Total Charge           Charge          ....    0
 Multiplicity           Mult            ....    1
 Number of Electrons    NEL             ....   22
 Basis Dimension        Dim             ....   42
 Nuclear Repulsion      ENuc            ....     56.6155082132 Eh

Convergence Acceleration:
 DIIS                   CNVDIIS         .... on
   Start iteration      DIISMaxIt       ....    12
   Startup error        DIISStart       ....  0.200000
   # of expansion vecs  DIISMaxEq       ....     5
   Bias factor          DIISBfac        ....   1.050
   Max. coefficient     DIISMaxC        ....  10.000
 Trust-Rad. Augm. Hess. CNVTRAH         .... auto
   Auto Start mean grad. ratio tolernc. ....  1.125000
   Auto Start start iteration           ....    20
   Auto Start num. interpolation iter.  ....    10
   Max. Number of Micro iterations      ....    16
   Max. Number of Macro iterations      .... Maxiter - #DIIS iter
   Number of Davidson start vectors     ....     2
   Converg. threshold I  (grad. norm)   ....   1.000e-05
   Converg. threshold II (energy diff.) ....   1.000e-08
   Grad. Scal. Fac. for Micro threshold ....   0.100
   Minimum threshold for Micro iter.    ....   0.010
   NR start threshold (gradient norm)   ....   0.001
   Initial trust radius                 ....   0.400
   Minimum AH scaling param. (alpha)    ....   1.000
   Maximum AH scaling param. (alpha)    .... 1000.000
   Orbital update algorithm             .... Taylor
   White noise on init. David. guess    .... on
   Maximum white noise                  ....   0.010
   Quad. conv. algorithm                .... NR
 SOSCF                  CNVSOSCF        .... on
   Start iteration      SOSCFMaxIt      ....   150
   Startup grad/error   SOSCFStart      ....  0.003300
 Level Shifting         CNVShift        .... on
   Level shift para.    LevelShift      ....    0.2500
   Turn off err/grad.   ShiftErr        ....    0.0010
 Zerner damping         CNVZerner       .... off
 Static damping         CNVDamp         .... on
   Fraction old density DampFac         ....    0.7000
   Max. Damping (<1)    DampMax         ....    0.9800
   Min. Damping (>=0)   DampMin         ....    0.0000
   Turn off err/grad.   DampErr         ....    0.1000
 Fernandez-Rico         CNVRico         .... off

SCF Procedure:
 Maximum # iterations   MaxIter         ....   125
 SCF integral mode      SCFMode         .... Direct
   Integral package                     .... SHARK and LIBINT hybrid scheme
 Reset frequency        DirectResetFreq ....    20
 Integral Threshold     Thresh          ....  2.500e-11 Eh
 Primitive CutOff       TCut            ....  2.500e-12 Eh

Convergence Tolerance:
 Convergence Check Mode ConvCheckMode   .... Total+1el-Energy
 Convergence forced     ConvForced      .... 0
 Energy Change          TolE            ....  1.000e-08 Eh
 1-El. energy change                    ....  1.000e-05 Eh
 Orbital Gradient       TolG            ....  1.000e-05
 Orbital Rotation angle TolX            ....  1.000e-05
 DIIS Error             TolErr          ....  5.000e-07


Diagonalization of the overlap matrix:
Smallest eigenvalue                        ... 9.338e-03
Time for diagonalization                   ...    0.000 sec
Threshold for overlap eigenvalues          ... 1.000e-08
Number of eigenvalues below threshold      ... 0
Time for construction of square roots      ...    0.000 sec
Total time needed                          ...    0.001 sec

Time for model grid setup =    0.015 sec

------------------------------
INITIAL GUESS: MODEL POTENTIAL
------------------------------
Loading Hartree-Fock densities                     ... done
Calculating cut-offs                               ... done
Initializing the effective Hamiltonian             ... done
Setting up the integral package (SHARK)            ... done
Starting the Coulomb interaction                   ... done (   0.0 sec)
Reading the grid                                   ... done
Mapping shells                                     ... done
Starting the XC term evaluation                    ... done (   0.0 sec)
  promolecular density results
     # of electrons  =     22.000057811
     EX              =    -21.354030292
     EC              =     -0.728253683
     EX+EC           =    -22.082283975
Transforming the Hamiltonian                       ... done (   0.0 sec)
Diagonalizing the Hamiltonian                      ... done (   0.0 sec)
Back transforming the eigenvectors                 ... done (   0.0 sec)
Now organizing SCF variables                       ... done
                      ------------------
                      INITIAL GUESS DONE (   0.0 sec)
                      ------------------
-------------------
DFT GRID GENERATION
-------------------

General Integration Accuracy     IntAcc      ... 4.388
Radial Grid Type                 RadialGrid  ... OptM3 with GC (2021)
Angular Grid (max. ang.)         AngularGrid ... 4 (Lebedev-302)
Angular grid pruning method      GridPruning ... 4 (adaptive)
Weight generation scheme         WeightScheme... Becke
Basis function cutoff            BFCut       ... 1.0000e-11
Integration weight cutoff        WCut        ... 1.0000e-14
Angular grids for H and He will be reduced by one unit
Partially contracted basis set               ... off
Rotationally invariant grid construction     ... off

Total number of grid points                  ...    18366
Total number of batches                      ...      288
Average number of points per batch           ...       63
Average number of grid points per atom       ...     6122
Time for grid setup =    0.092 sec

--------------
SCF ITERATIONS
--------------
ITER       Energy         Delta-E        Max-DP      RMS-DP      [F,P]     Damp
               ***  Starting incremental Fock matrix formation  ***
  0   -188.1442588208   0.000000000000 0.10912674  0.00687988  0.2111107 0.7000
  1   -188.2047537165  -0.060494895704 0.03823001  0.00300738  0.0585790 0.7000
                               ***Turning on DIIS***
  2   -188.2165296953  -0.011775978869 0.04148744  0.00255912  0.0199807 0.0000
  3   -188.2528005848  -0.036270889504 0.03044069  0.00200409  0.0294866 0.0000
  4   -188.2536579863  -0.000857401448 0.02108802  0.00090143  0.0198299 0.0000
  5   -188.2547021762  -0.001044189936 0.00529349  0.00022923  0.0064379 0.0000
                      *** Initiating the SOSCF procedure ***
                           *** Shutting down DIIS ***
                      *** Re-Reading the Fockian *** 
                      *** Removing any level shift *** 
ITER      Energy       Delta-E        Grad      Rot      Max-DP    RMS-DP
  6   -188.25479022  -0.0000880440  0.000469  0.000469  0.000943  0.000057
               *** Restarting incremental Fock matrix formation ***
  7   -188.25479798  -0.0000077564  0.000422  0.000989  0.001231  0.000077
  8   -188.25479477   0.0000032019  0.000922  0.000622  0.000880  0.000055
  9   -188.25479867  -0.0000038978  0.000040  0.000131  0.000129  0.000010
 10   -188.25479859   0.0000000785  0.000151  0.000105  0.000108  0.000008
 11   -188.25479868  -0.0000000853  0.000007  0.000006  0.000018  0.000001
 12   -188.25479868   0.0000000003  0.000006  0.000003  0.000009  0.000001
                 **** Energy Check signals convergence ****
              ***Rediagonalizing the Fockian in SOSCF/NRSCF***

               *****************************************************
               *                     SUCCESS                       *
               *           SCF CONVERGED AFTER  13 CYCLES          *
               *****************************************************


----------------
TOTAL SCF ENERGY
----------------

Total Energy       :         -188.25479868 Eh           -5122.67350 eV

Components:
Nuclear Repulsion  :           56.61550821 Eh            1540.58630 eV
Electronic Energy  :         -244.87030689 Eh           -6663.25980 eV
One Electron Energy:         -369.24068422 Eh          -10047.54983 eV
Two Electron Energy:          124.37037733 Eh            3384.29002 eV

Virial components:
Potential Energy   :         -375.00472793 Eh          -10204.39743 eV
Kinetic Energy     :          186.74992925 Eh            5081.72392 eV
Virial Ratio       :            2.00805821


DFT components:
N(Alpha)           :       10.999998581648 electrons
N(Beta)            :       10.999998581648 electrons
N(Total)           :       21.999997163295 electrons
E(X)               :      -21.541924923216 Eh       
E(C)               :       -0.741217758011 Eh       
E(XC)              :      -22.283142681227 Eh       
DFET-embed. en.    :        0.000000000000 Eh       

---------------
SCF CONVERGENCE
---------------

  Last Energy change         ...   -5.0844e-10  Tolerance :   1.0000e-08
  Last MAX-Density change    ...    1.0890e-07  Tolerance :   1.0000e-07
  Last RMS-Density change    ...    7.9454e-09  Tolerance :   5.0000e-09
  Last Orbital Gradient      ...    6.4750e-08  Tolerance :   1.0000e-05
  Last Orbital Rotation      ...    4.1108e-08  Tolerance :   1.0000e-05

             **** THE GBW FILE WAS UPDATED (CO2_IR_2nd_order.gbw) ****
             **** DENSITY CO2_IR_2nd_order.scfp WAS UPDATED ****
             **** ENERGY FILE WAS UPDATED (CO2_IR_2nd_order.en.tmp) ****
             **** THE GBW FILE WAS UPDATED (CO2_IR_2nd_order.gbw) ****
             **** DENSITY CO2_IR_2nd_order.scfp WAS UPDATED ****
----------------
ORBITAL ENERGIES
----------------

  NO   OCC          E(Eh)            E(eV) 
   0   2.0000     -18.840615      -512.6792 
   1   2.0000     -18.840537      -512.6771 
   2   2.0000     -10.078064      -274.2381 
   3   2.0000      -1.038698       -28.2644 
   4   2.0000      -1.002485       -27.2790 
   5   2.0000      -0.493159       -13.4195 
   6   2.0000      -0.451658       -12.2902 
   7   2.0000      -0.449718       -12.2375 
   8   2.0000      -0.449718       -12.2374 
   9   2.0000      -0.322095        -8.7646 
  10   2.0000      -0.322094        -8.7646 
  11   0.0000      -0.022874        -0.6224 
  12   0.0000      -0.022874        -0.6224 
  13   0.0000       0.018791         0.5113 
  14   0.0000       0.323128         8.7928 
  15   0.0000       0.387620        10.5477 
  16   0.0000       0.394072        10.7232 
  17   0.0000       0.394072        10.7232 
  18   0.0000       0.672269        18.2934 
  19   0.0000       0.771989        21.0069 
  20   0.0000       0.848487        23.0885 
  21   0.0000       0.848488        23.0885 
  22   0.0000       0.957074        26.0433 
  23   0.0000       1.031003        28.0550 
  24   0.0000       1.031004        28.0550 
  25   0.0000       1.180561        32.1247 
  26   0.0000       1.470466        40.0134 
  27   0.0000       1.470466        40.0134 
  28   0.0000       1.479425        40.2572 
  29   0.0000       1.479425        40.2572 
  30   0.0000       1.517330        41.2886 
  31   0.0000       2.460102        66.9428 
  32   0.0000       2.460103        66.9428 
  33   0.0000       2.556910        69.5770 
  34   0.0000       2.556910        69.5771 
  35   0.0000       2.607823        70.9625 
  36   0.0000       2.635543        71.7168 
  37   0.0000       2.635543        71.7168 
  38   0.0000       3.355820        91.3165 
  39   0.0000       3.355820        91.3165 
  40   0.0000       3.360420        91.4417 
  41   0.0000       3.704541       100.8057 

                    ********************************
                    * MULLIKEN POPULATION ANALYSIS *
                    ********************************

-----------------------
MULLIKEN ATOMIC CHARGES
-----------------------
   0 C :    0.238575
   1 O :   -0.119239
   2 O :   -0.119335
Sum of atomic charges:    0.0000000

--------------------------------
MULLIKEN REDUCED ORBITAL CHARGES
--------------------------------
  0 C s       :     2.988172  s :     2.988172
      pz      :     0.854798  p :     2.644053
      px      :     0.858398
      py      :     0.930857
      dz2     :     0.007145  d :     0.129200
      dxz     :     0.002273
      dyz     :     0.048037
      dx2y2   :     0.026418
      dxy     :     0.045327
  1 O s       :     3.753869  s :     3.753869
      pz      :     1.541412  p :     4.344912
      px      :     1.528793
      py      :     1.274707
      dz2     :     0.002109  d :     0.020459
      dxz     :     0.000272
      dyz     :     0.005740
      dx2y2   :     0.006272
      dxy     :     0.006066
  2 O s       :     3.753931  s :     3.753931
      pz      :     1.541457  p :     4.344951
      px      :     1.528829
      py      :     1.274664
      dz2     :     0.002108  d :     0.020454
      dxz     :     0.000272
      dyz     :     0.005738
      dx2y2   :     0.006271
      dxy     :     0.006064


                     *******************************
                     * LOEWDIN POPULATION ANALYSIS *
                     *******************************

----------------------
LOEWDIN ATOMIC CHARGES
----------------------
   0 C :    0.120590
   1 O :   -0.060252
   2 O :   -0.060338

-------------------------------
LOEWDIN REDUCED ORBITAL CHARGES
-------------------------------
  0 C s       :     2.833857  s :     2.833857
      pz      :     0.846730  p :     2.765170
      px      :     0.856896
      py      :     1.061543
      dz2     :     0.020290  d :     0.280384
      dxz     :     0.004501
      dyz     :     0.095112
      dx2y2   :     0.067555
      dxy     :     0.092926
  1 O s       :     3.561659  s :     3.561659
      pz      :     1.519287  p :     4.464067
      px      :     1.515051
      py      :     1.429730
      dz2     :     0.004873  d :     0.034525
      dxz     :     0.000340
      dyz     :     0.007177
      dx2y2   :     0.013394
      dxy     :     0.008742
  2 O s       :     3.561717  s :     3.561717
      pz      :     1.519339  p :     4.464103
      px      :     1.515094
      py      :     1.429669
      dz2     :     0.004872  d :     0.034518
      dxz     :     0.000340
      dyz     :     0.007175
      dx2y2   :     0.013391
      dxy     :     0.008740


                      *****************************
                      * MAYER POPULATION ANALYSIS *
                      *****************************

  NA   - Mulliken gross atomic population
  ZA   - Total nuclear charge
  QA   - Mulliken gross atomic charge
  VA   - Mayer's total valence
  BVA  - Mayer's bonded valence
  FA   - Mayer's free valence

  ATOM       NA         ZA         QA         VA         BVA        FA
  0 C      5.7614     6.0000     0.2386     4.2970     4.2970    -0.0000
  1 O      8.1192     8.0000    -0.1192     2.4498     2.4498     0.0000
  2 O      8.1193     8.0000    -0.1193     2.4497     2.4497     0.0000

  Mayer bond orders larger than 0.100000
B(  0-C ,  1-O ) :   2.1485 B(  0-C ,  2-O ) :   2.1484 B(  1-O ,  2-O ) :   0.3012 


-------
TIMINGS
-------

Total SCF time: 0 days 0 hours 0 min 0 sec 

Total time                  ....       0.920 sec
Sum of individual times     ....       0.846 sec  ( 91.9%)

Fock matrix formation       ....       0.608 sec  ( 66.1%)
  Split-RI-J                ....       0.180 sec  ( 29.6% of F)
  XC integration            ....       0.387 sec  ( 63.7% of F)
    Basis function eval.    ....       0.075 sec  ( 19.3% of XC)
    Density eval.           ....       0.056 sec  ( 14.4% of XC)
    XC-Functional eval.     ....       0.057 sec  ( 14.6% of XC)
    XC-Potential eval.      ....       0.049 sec  ( 12.7% of XC)
Diagonalization             ....       0.055 sec  (  6.0%)
Density matrix formation    ....       0.002 sec  (  0.3%)
Population analysis         ....       0.002 sec  (  0.2%)
Initial guess               ....       0.009 sec  (  1.0%)
Orbital Transformation      ....       0.000 sec  (  0.0%)
Orbital Orthonormalization  ....       0.000 sec  (  0.0%)
DIIS solution               ....       0.049 sec  (  5.3%)
SOSCF solution              ....       0.013 sec  (  1.4%)
Grid generation             ....       0.108 sec  ( 11.7%)

Maximum memory used throughout the entire SCF-calculation: 7.4 MB

-------------------------   --------------------
FINAL SINGLE POINT ENERGY      -188.254798679483
-------------------------   --------------------



           ************************************************************
           *        Program running with 4 parallel MPI-processes     *
           *              working on a common directory               *
           ************************************************************
------------------------------------------------------------------------------
                         ORCA SCF GRADIENT CALCULATION
------------------------------------------------------------------------------

Gradient of the Kohn-Sham DFT energy:
Kohn-Sham wavefunction type      ... RKS
Hartree-Fock exchange scaling    ...    0.000
Number of operators              ...    1
Number of atoms                  ...    3
Basis set dimensions             ...   42
Integral neglect threshold       ... 2.5e-11
Integral primitive cutoff        ... 2.5e-12
SHARK Integral package           ... ON

Nuc. rep. gradient       (SHARK) ... done (  0.0 sec)
HCore & Overlap gradient (SHARK) ... done (  0.0 sec)
RI-J gradient            (SHARK) ... done (  0.1 sec)
Exchange-correlation gradient    ... done

------------------
CARTESIAN GRADIENT
------------------

   1   C   :    0.000028821    0.000116027   -0.000000000
   2   O   :    0.008892104    0.040992739   -0.000000000
   3   O   :   -0.008920925   -0.041108766    0.000000000

Difference to translation invariance:
           :    0.0000000000    0.0000000000    0.0000000000

Difference to rotation invariance:
           :   -0.0000000003    0.0000000001    0.0001051532

Norm of the cartesian gradient     ...    0.0594054036
RMS gradient                       ...    0.0198018012
MAX gradient                       ...    0.0411087659

-------
TIMINGS
-------

Total SCF gradient time            ...        0.178 sec

One electron gradient       ....       0.004 sec  (  2.4%)
RI-J Coulomb gradient       ....       0.057 sec  ( 32.1%)
XC gradient                 ....       0.061 sec  ( 34.3%)

Maximum memory used throughout the entire SCFGRAD-calculation: 6.6 MB
------------------------------------------------------------------------------
                         ORCA GEOMETRY RELAXATION STEP
------------------------------------------------------------------------------

Reading the OPT-File                    .... done
Getting information on internals        .... done
Copying old internal coords+grads       .... done
Making the new internal coordinates     .... (new redundants).... done
Validating the new internal coordinates .... (new redundants).... done
Calculating the B-matrix                .... done
Calculating the G,G- and P matrices     .... done
Transforming gradient to internals      .... done
Projecting the internal gradient        .... done
Number of atoms                         ....   3
Number of internal coordinates          ....   4
Current Energy                          ....  -188.254798679 Eh
Current gradient norm                   ....     0.059405404 Eh/bohr
Maximum allowed component of the step   ....  0.300
Current trust radius                    ....  0.300
Evaluating the initial hessian          ....  (Almloef) done
Projecting the Hessian                  .... done
Forming the augmented Hessian           .... done
Diagonalizing the augmented Hessian     .... done
Last element of RFO vector              ....  0.998651409
Lowest eigenvalues of augmented Hessian:
 -0.003088302  0.536091152  0.536091152  1.139598967
Length of the computed step             ....  0.051987006
The final length of the internal step   ....  0.051987006
Converting the step to cartesian space:
 Initial RMS(Int)=    0.0259935029
Transforming coordinates:
 Iter   0:  RMS(Cart)=    0.0173289878 RMS(Int)=    0.0259935028
 Iter   1:  RMS(Cart)=    0.0000001840 RMS(Int)=    0.0000003038
 Iter   2:  RMS(Cart)=    0.0000001013 RMS(Int)=    0.0000001675
 Iter   3:  RMS(Cart)=    0.0000000557 RMS(Int)=    0.0000000925
done
Storing new coordinates                 .... done

                                .--------------------.
          ----------------------|Geometry convergence|-------------------------
          Item                value                   Tolerance       Converged
          ---------------------------------------------------------------------
          RMS gradient        0.0297026371            0.0000300000      NO
          MAX gradient        0.0420655806            0.0001000000      NO
          RMS step            0.0259935029            0.0006000000      NO
          MAX step            0.0368177874            0.0010000000      NO
          ........................................................
          Max(Bonds)      0.0195      Max(Angles)    0.00
          Max(Dihed)        0.00      Max(Improp)    0.00
          ---------------------------------------------------------------------

The optimization has not yet converged - more geometry cycles are needed


    ---------------------------------------------------------------------------
                         Redundant Internal Coordinates
                            (Angstroem and degrees)

        Definition                    Value    dE/dq     Step     New-Value
    ----------------------------------------------------------------------------
     1. B(O   1,C   0)                1.1964  0.041946 -0.0194    1.1769   
     2. B(O   2,C   0)                1.1964  0.042066 -0.0195    1.1770   
     3. L(O   1,C   0,O   2, 2)       180.00  0.000000   -0.00    180.00   
     4. L(O   1,C   0,O   2, 1)       180.00  0.000001   -0.00    180.00   
    ----------------------------------------------------------------------------

         *************************************************************
         *                GEOMETRY OPTIMIZATION CYCLE   2            *
         *************************************************************
---------------------------------
CARTESIAN COORDINATES (ANGSTROEM)
---------------------------------
  C     -5.735405   -0.751790    0.000000
  O     -5.485232    0.398252   -0.000000
  O     -5.985602   -1.901842   -0.000000

----------------------------
CARTESIAN COORDINATES (A.U.)
----------------------------
  NO LB      ZA    FRAG     MASS         X           Y           Z
   0 C     6.0000    0    12.011  -10.838345   -1.420676    0.000000
   1 O     8.0000    0    15.999  -10.365587    0.752587   -0.000000
   2 O     8.0000    0    15.999  -11.311149   -3.593961   -0.000000

--------------------------------
INTERNAL COORDINATES (ANGSTROEM)
--------------------------------
 C      0   0   0     0.000000000000     0.00000000     0.00000000
 O      1   0   0     1.176937270033     0.00000000     0.00000000
 O      1   2   0     1.176953351492   179.99896856     0.00000000

---------------------------
INTERNAL COORDINATES (A.U.)
---------------------------
 C      0   0   0     0.000000000000     0.00000000     0.00000000
 O      1   0   0     2.224089117168     0.00000000     0.00000000
 O      1   2   0     2.224119506721   179.99896856     0.00000000



           ************************************************************
           *        Program running with 4 parallel MPI-processes     *
           *              working on a common directory               *
           ************************************************************
------------------------------------------------------------------------------
                   ___                                                        
                  /   \      - P O W E R E D   B Y -                         
                 /     \                                                     
                 |  |  |   _    _      __       _____    __    __             
                 |  |  |  | |  | |    /  \     |  _  \  |  |  /  |          
                  \  \/   | |  | |   /    \    | | | |  |  | /  /          
                 / \  \   | |__| |  /  /\  \   | |_| |  |  |/  /          
                |  |  |   |  __  | /  /__\  \  |    /   |      \           
                |  |  |   | |  | | |   __   |  |    \   |  |\   \          
                \     /   | |  | | |  |  |  |  | |\  \  |  | \   \       
                 \___/    |_|  |_| |__|  |__|  |_| \__\ |__|  \__/        
                                                                              
                      - O R C A' S   B I G   F R I E N D -                    
                                      &                                       
                       - I N T E G R A L  F E E D E R -                       
                                                                              
 v1 FN, 2020, v2 2021                                                         
------------------------------------------------------------------------------


Reading SHARK input file CO2_IR_2nd_order.SHARKINP.tmp ... ok
----------------------
SHARK INTEGRAL PACKAGE
----------------------

Number of atoms                             ...      3
Number of basis functions                   ...     42
Number of shells                            ...     18
Maximum angular momentum                    ...      2
Integral batch strategy                     ... SHARK/LIBINT Hybrid
RI-J (if used) integral strategy            ... SPLIT-RIJ (Revised 2003 algorithm where possible)
Printlevel                                  ...      1
Contraction scheme used                     ... SEGMENTED contraction
Coulomb Range Separation                    ... NOT USED
Exchange Range Separation                   ... NOT USED
Finite Nucleus Model                        ... NOT USED
Auxiliary Coulomb fitting basis             ... AVAILABLE
   # of basis functions in Aux-J            ...    147
   # of shells in Aux-J                     ...     45
   Maximum angular momentum in Aux-J        ...      4
Auxiliary J/K fitting basis                 ... NOT available
Auxiliary Correlation fitting basis         ... NOT available
Auxiliary 'external' fitting basis          ... NOT available
Integral threshold                          ...     2.500000e-11
Primitive cut-off                           ...     2.500000e-12
Primitive pair pre-selection threshold      ...     2.500000e-12

Calculating pre-screening integrals         ... done (  0.0 sec) Dimension = 18
Organizing shell pair data                  ... done (  0.0 sec)
Shell pair information
Total number of shell pairs                 ...       171
Shell pairs after pre-screening             ...       170
Total number of primitive shell pairs       ...       705
Primitive shell pairs kept                  ...       604
          la=0 lb=0:     44 shell pairs
          la=1 lb=0:     54 shell pairs
          la=1 lb=1:     21 shell pairs
          la=2 lb=0:     27 shell pairs
          la=2 lb=1:     18 shell pairs
          la=2 lb=2:      6 shell pairs

Calculating one electron integrals          ... done (  0.0 sec)
Calculating RI/J V-Matrix + Cholesky decomp.... done (  0.0 sec)
Calculating Nuclear repulsion               ... done (  0.0 sec) ENN=     57.551257518976 Eh

SHARK setup successfully completed in   0.1 seconds

Maximum memory used throughout the entire GTOINT-calculation: 8.9 MB


           ************************************************************
           *        Program running with 4 parallel MPI-processes     *
           *              working on a common directory               *
           ************************************************************

Diagonalization of the overlap matrix:
Smallest eigenvalue                        ... 9.213e-03
Time for diagonalization                   ...    0.000 sec
Threshold for overlap eigenvalues          ... 1.000e-08
Number of eigenvalues below threshold      ... 0
Time for construction of square roots      ...    0.000 sec
Total time needed                          ...    0.001 sec

-------------------
DFT GRID GENERATION
-------------------

General Integration Accuracy     IntAcc      ... 4.388
Radial Grid Type                 RadialGrid  ... OptM3 with GC (2021)
Angular Grid (max. ang.)         AngularGrid ... 4 (Lebedev-302)
Angular grid pruning method      GridPruning ... 4 (adaptive)
Weight generation scheme         WeightScheme... Becke
Basis function cutoff            BFCut       ... 1.0000e-11
Integration weight cutoff        WCut        ... 1.0000e-14
Angular grids for H and He will be reduced by one unit
Partially contracted basis set               ... off
Rotationally invariant grid construction     ... off

Total number of grid points                  ...    18366
Total number of batches                      ...      288
Average number of points per batch           ...       63
Average number of grid points per atom       ...     6122
Time for grid setup =    0.127 sec

--------------
SCF ITERATIONS
--------------
ITER       Energy         Delta-E        Max-DP      RMS-DP      [F,P]     Damp
               ***  Starting incremental Fock matrix formation  ***
  0   -188.2560743070   0.000000000000 0.00294962  0.00032865  0.0098184 0.7000
                      *** Initiating the SOSCF procedure ***
                      *** Re-Reading the Fockian *** 
                      *** Removing any level shift *** 
ITER      Energy       Delta-E        Grad      Rot      Max-DP    RMS-DP
  1   -188.25624144  -0.0001671315  0.001641  0.001641  0.008582  0.000892
               *** Restarting incremental Fock matrix formation ***
  2   -188.25654172  -0.0003002857  0.002148  0.001831  0.005430  0.000395
  3   -188.25655071  -0.0000089851  0.001975  0.000876  0.002062  0.000166
  4   -188.25657055  -0.0000198373  0.000594  0.001090  0.002379  0.000116
  5   -188.25656678   0.0000037644  0.000962  0.000683  0.001653  0.000080
  6   -188.25657217  -0.0000053880  0.000041  0.000130  0.000135  0.000010
  7   -188.25657209   0.0000000767  0.000151  0.000102  0.000103  0.000008
                  ***Gradient check signals convergence***
              ***Rediagonalizing the Fockian in SOSCF/NRSCF***

               *****************************************************
               *                     SUCCESS                       *
               *           SCF CONVERGED AFTER   8 CYCLES          *
               *****************************************************

Total Energy       :         -188.25657218 Eh           -5122.72176 eV
  Last Energy change         ...   -8.2932e-08  Tolerance :   1.0000e-08
  Last MAX-Density change    ...    2.6693e-07  Tolerance :   1.0000e-07
             **** THE GBW FILE WAS UPDATED (CO2_IR_2nd_order.gbw) ****
             **** DENSITY CO2_IR_2nd_order.scfp WAS UPDATED ****
             **** ENERGY FILE WAS UPDATED (CO2_IR_2nd_order.en.tmp) ****
             **** THE GBW FILE WAS UPDATED (CO2_IR_2nd_order.gbw) ****
             **** DENSITY CO2_IR_2nd_order.scfp WAS UPDATED ****
Total SCF time: 0 days 0 hours 0 min 0 sec 

Maximum memory used throughout the entire SCF-calculation: 7.4 MB

-------------------------   --------------------
FINAL SINGLE POINT ENERGY      -188.256572176412
-------------------------   --------------------



           ************************************************************
           *        Program running with 4 parallel MPI-processes     *
           *              working on a common directory               *
           ************************************************************
------------------------------------------------------------------------------
                         ORCA SCF GRADIENT CALCULATION
------------------------------------------------------------------------------

Gradient of the Kohn-Sham DFT energy:
Kohn-Sham wavefunction type      ... RKS
Hartree-Fock exchange scaling    ...    0.000
Number of operators              ...    1
Number of atoms                  ...    3
Basis set dimensions             ...   42
Integral neglect threshold       ... 2.5e-11
Integral primitive cutoff        ... 2.5e-12
SHARK Integral package           ... ON

Nuc. rep. gradient       (SHARK) ... done (  0.0 sec)
HCore & Overlap gradient (SHARK) ... done (  0.0 sec)
RI-J gradient            (SHARK) ... done (  0.1 sec)
Exchange-correlation gradient    ... done

------------------
CARTESIAN GRADIENT
------------------

   1   C   :    0.000008707    0.000027658    0.000000004
   2   O   :    0.001122109    0.005261460   -0.000000002
   3   O   :   -0.001130816   -0.005289118   -0.000000002

Difference to translation invariance:
           :   -0.0000000000   -0.0000000000   -0.0000000000

Difference to rotation invariance:
           :    0.0000000001   -0.0000000000    0.0000918896

Norm of the cartesian gradient     ...    0.0076286595
RMS gradient                       ...    0.0025428865
MAX gradient                       ...    0.0052891180

-------
TIMINGS
-------

Total SCF gradient time            ...        0.184 sec

One electron gradient       ....       0.003 sec  (  1.6%)
RI-J Coulomb gradient       ....       0.058 sec  ( 31.4%)
XC gradient                 ....       0.049 sec  ( 26.7%)

Maximum memory used throughout the entire SCFGRAD-calculation: 6.7 MB
------------------------------------------------------------------------------
                         ORCA GEOMETRY RELAXATION STEP
------------------------------------------------------------------------------

Reading the OPT-File                    .... done
Getting information on internals        .... done
Copying old internal coords+grads       .... done
Making the new internal coordinates     .... (new redundants).... done
Validating the new internal coordinates .... (new redundants).... done
Calculating the B-matrix                .... done
Calculating the G,G- and P matrices     .... done
Transforming gradient to internals      .... done
Projecting the internal gradient        .... done
Number of atoms                         ....   3
Number of internal coordinates          ....   4
Current Energy                          ....  -188.256572176 Eh
Current gradient norm                   ....     0.007628659 Eh/bohr
Maximum allowed component of the step   ....  0.300
Current trust radius                    ....  0.300
Updating the Hessian (BFGS)             .... done
Forming the augmented Hessian           .... done
Diagonalizing the augmented Hessian     .... done
Last element of RFO vector              ....  0.999970670
Lowest eigenvalues of augmented Hessian:
 -0.000058428  0.536091150  0.536091152  0.996012926
Length of the computed step             ....  0.007659085
The final length of the internal step   ....  0.007659085
Converting the step to cartesian space:
 Initial RMS(Int)=    0.0038295424
Transforming coordinates:
 Iter   0:  RMS(Cart)=    0.0025530214 RMS(Int)=    0.0038295423
 Iter   1:  RMS(Cart)=    0.0000001998 RMS(Int)=    0.0000003311
 Iter   2:  RMS(Cart)=    0.0000001098 RMS(Int)=    0.0000001818
 Iter   3:  RMS(Cart)=    0.0000000603 RMS(Int)=    0.0000000999
done
Storing new coordinates                 .... done

                                .--------------------.
          ----------------------|Geometry convergence|-------------------------
          Item                value                   Tolerance       Converged
          ---------------------------------------------------------------------
          Energy change      -0.0017734969            0.0000010000      NO
          RMS gradient        0.0038142742            0.0000300000      NO
          MAX gradient        0.0054086172            0.0001000000      NO
          RMS step            0.0038295424            0.0006000000      NO
          MAX step            0.0054310464            0.0010000000      NO
          ........................................................
          Max(Bonds)      0.0029      Max(Angles)    0.00
          Max(Dihed)        0.00      Max(Improp)    0.00
          ---------------------------------------------------------------------

The optimization has not yet converged - more geometry cycles are needed


    ---------------------------------------------------------------------------
                         Redundant Internal Coordinates
                            (Angstroem and degrees)

        Definition                    Value    dE/dq     Step     New-Value
    ----------------------------------------------------------------------------
     1. B(O   1,C   0)                1.1769  0.005380 -0.0029    1.1741   
     2. B(O   2,C   0)                1.1770  0.005409 -0.0029    1.1741   
     3. L(O   1,C   0,O   2, 2)       180.00 -0.000000    0.00    180.00   
     4. L(O   1,C   0,O   2, 1)       180.00  0.000001   -0.00    180.00   
    ----------------------------------------------------------------------------

         *************************************************************
         *                GEOMETRY OPTIMIZATION CYCLE   3            *
         *************************************************************
---------------------------------
CARTESIAN COORDINATES (ANGSTROEM)
---------------------------------
  C     -5.735407   -0.751795    0.000000
  O     -5.485841    0.395454   -0.000000
  O     -5.984992   -1.899039   -0.000000

----------------------------
CARTESIAN COORDINATES (A.U.)
----------------------------
  NO LB      ZA    FRAG     MASS         X           Y           Z
   0 C     6.0000    0    12.011  -10.838349   -1.420686    0.000000
   1 O     8.0000    0    15.999  -10.366736    0.747299   -0.000000
   2 O     8.0000    0    15.999  -11.309996   -3.588664   -0.000000

--------------------------------
INTERNAL COORDINATES (ANGSTROEM)
--------------------------------
 C      0   0   0     0.000000000000     0.00000000     0.00000000
 O      1   0   0     1.174079452990     0.00000000     0.00000000
 O      1   2   0     1.174079365512   179.99910779     0.00000000

---------------------------
INTERNAL COORDINATES (A.U.)
---------------------------
 C      0   0   0     0.000000000000     0.00000000     0.00000000
 O      1   0   0     2.218688625616     0.00000000     0.00000000
 O      1   2   0     2.218688460306   179.99910779     0.00000000



           ************************************************************
           *        Program running with 4 parallel MPI-processes     *
           *              working on a common directory               *
           ************************************************************
------------------------------------------------------------------------------
                   ___                                                        
                  /   \      - P O W E R E D   B Y -                         
                 /     \                                                     
                 |  |  |   _    _      __       _____    __    __             
                 |  |  |  | |  | |    /  \     |  _  \  |  |  /  |          
                  \  \/   | |  | |   /    \    | | | |  |  | /  /          
                 / \  \   | |__| |  /  /\  \   | |_| |  |  |/  /          
                |  |  |   |  __  | /  /__\  \  |    /   |      \           
                |  |  |   | |  | | |   __   |  |    \   |  |\   \          
                \     /   | |  | | |  |  |  |  | |\  \  |  | \   \       
                 \___/    |_|  |_| |__|  |__|  |_| \__\ |__|  \__/        
                                                                              
                      - O R C A' S   B I G   F R I E N D -                    
                                      &                                       
                       - I N T E G R A L  F E E D E R -                       
                                                                              
 v1 FN, 2020, v2 2021                                                         
------------------------------------------------------------------------------


Reading SHARK input file CO2_IR_2nd_order.SHARKINP.tmp ... ok
----------------------
SHARK INTEGRAL PACKAGE
----------------------

Number of atoms                             ...      3
Number of basis functions                   ...     42
Number of shells                            ...     18
Maximum angular momentum                    ...      2
Integral batch strategy                     ... SHARK/LIBINT Hybrid
RI-J (if used) integral strategy            ... SPLIT-RIJ (Revised 2003 algorithm where possible)
Printlevel                                  ...      1
Contraction scheme used                     ... SEGMENTED contraction
Coulomb Range Separation                    ... NOT USED
Exchange Range Separation                   ... NOT USED
Finite Nucleus Model                        ... NOT USED
Auxiliary Coulomb fitting basis             ... AVAILABLE
   # of basis functions in Aux-J            ...    147
   # of shells in Aux-J                     ...     45
   Maximum angular momentum in Aux-J        ...      4
Auxiliary J/K fitting basis                 ... NOT available
Auxiliary Correlation fitting basis         ... NOT available
Auxiliary 'external' fitting basis          ... NOT available
Integral threshold                          ...     2.500000e-11
Primitive cut-off                           ...     2.500000e-12
Primitive pair pre-selection threshold      ...     2.500000e-12

Calculating pre-screening integrals         ... done (  0.0 sec) Dimension = 18
Organizing shell pair data                  ... done (  0.0 sec)
Shell pair information
Total number of shell pairs                 ...       171
Shell pairs after pre-screening             ...       170
Total number of primitive shell pairs       ...       705
Primitive shell pairs kept                  ...       604
          la=0 lb=0:     44 shell pairs
          la=1 lb=0:     54 shell pairs
          la=1 lb=1:     21 shell pairs
          la=2 lb=0:     27 shell pairs
          la=2 lb=1:     18 shell pairs
          la=2 lb=2:      6 shell pairs

Calculating one electron integrals          ... done (  0.0 sec)
Calculating RI/J V-Matrix + Cholesky decomp.... done (  0.0 sec)
Calculating Nuclear repulsion               ... done (  0.0 sec) ENN=     57.691738845935 Eh

SHARK setup successfully completed in   0.1 seconds

Maximum memory used throughout the entire GTOINT-calculation: 8.9 MB


           ************************************************************
           *        Program running with 4 parallel MPI-processes     *
           *              working on a common directory               *
           ************************************************************

Diagonalization of the overlap matrix:
Smallest eigenvalue                        ... 9.197e-03
Time for diagonalization                   ...    0.001 sec
Threshold for overlap eigenvalues          ... 1.000e-08
Number of eigenvalues below threshold      ... 0
Time for construction of square roots      ...    0.002 sec
Total time needed                          ...    0.005 sec

-------------------
DFT GRID GENERATION
-------------------

General Integration Accuracy     IntAcc      ... 4.388
Radial Grid Type                 RadialGrid  ... OptM3 with GC (2021)
Angular Grid (max. ang.)         AngularGrid ... 4 (Lebedev-302)
Angular grid pruning method      GridPruning ... 4 (adaptive)
Weight generation scheme         WeightScheme... Becke
Basis function cutoff            BFCut       ... 1.0000e-11
Integration weight cutoff        WCut        ... 1.0000e-14
Angular grids for H and He will be reduced by one unit
Partially contracted basis set               ... off
Rotationally invariant grid construction     ... off

Total number of grid points                  ...    18366
Total number of batches                      ...      288
Average number of points per batch           ...       63
Average number of grid points per atom       ...     6122
Time for grid setup =    0.108 sec

--------------
SCF ITERATIONS
--------------
ITER       Energy         Delta-E        Max-DP      RMS-DP      [F,P]     Damp
               ***  Starting incremental Fock matrix formation  ***
                      *** Initiating the SOSCF procedure ***
                      *** Re-Reading the Fockian *** 
                      *** Removing any level shift *** 
ITER      Energy       Delta-E        Grad      Rot      Max-DP    RMS-DP
  0   -188.25658802 -188.2565880234  0.001064  0.001064  0.001460  0.000164
               *** Restarting incremental Fock matrix formation ***
  1   -188.25659797  -0.0000099477  0.000432  0.000402  0.001066  0.000081
  2   -188.25659826  -0.0000002921  0.000405  0.000259  0.000427  0.000032
  3   -188.25659894  -0.0000006758  0.000186  0.000226  0.000682  0.000033
  4   -188.25659890   0.0000000435  0.000174  0.000093  0.000364  0.000019
  5   -188.25659912  -0.0000002206  0.000035  0.000103  0.000107  0.000008
  6   -188.25659907   0.0000000491  0.000117  0.000080  0.000079  0.000006
                  ***Gradient check signals convergence***
              ***Rediagonalizing the Fockian in SOSCF/NRSCF***

               *****************************************************
               *                     SUCCESS                       *
               *           SCF CONVERGED AFTER   7 CYCLES          *
               *****************************************************

Total Energy       :         -188.25659912 Eh           -5122.72250 eV
  Last Energy change         ...   -5.3996e-08  Tolerance :   1.0000e-08
  Last MAX-Density change    ...    7.9620e-07  Tolerance :   1.0000e-07
             **** THE GBW FILE WAS UPDATED (CO2_IR_2nd_order.gbw) ****
             **** DENSITY CO2_IR_2nd_order.scfp WAS UPDATED ****
             **** ENERGY FILE WAS UPDATED (CO2_IR_2nd_order.en.tmp) ****
             **** THE GBW FILE WAS UPDATED (CO2_IR_2nd_order.gbw) ****
             **** DENSITY CO2_IR_2nd_order.scfp WAS UPDATED ****
Total SCF time: 0 days 0 hours 0 min 0 sec 

Maximum memory used throughout the entire SCF-calculation: 7.4 MB

-------------------------   --------------------
FINAL SINGLE POINT ENERGY      -188.256599121006
-------------------------   --------------------



           ************************************************************
           *        Program running with 4 parallel MPI-processes     *
           *              working on a common directory               *
           ************************************************************
------------------------------------------------------------------------------
                         ORCA SCF GRADIENT CALCULATION
------------------------------------------------------------------------------

Gradient of the Kohn-Sham DFT energy:
Kohn-Sham wavefunction type      ... RKS
Hartree-Fock exchange scaling    ...    0.000
Number of operators              ...    1
Number of atoms                  ...    3
Basis set dimensions             ...   42
Integral neglect threshold       ... 2.5e-11
Integral primitive cutoff        ... 2.5e-12
SHARK Integral package           ... ON

Nuc. rep. gradient       (SHARK) ... done (  0.0 sec)
HCore & Overlap gradient (SHARK) ... done (  0.0 sec)
RI-J gradient            (SHARK) ... done (  0.1 sec)
Exchange-correlation gradient    ... done

------------------
CARTESIAN GRADIENT
------------------

   1   C   :    0.000002136   -0.000000594    0.000000003
   2   O   :   -0.000113232   -0.000423370   -0.000000001
   3   O   :    0.000111097    0.000423964   -0.000000001

Difference to translation invariance:
           :    0.0000000000    0.0000000000   -0.0000000000

Difference to rotation invariance:
           :    0.0000000001   -0.0000000000    0.0000867130

Norm of the cartesian gradient     ...    0.0006198034
RMS gradient                       ...    0.0002066011
MAX gradient                       ...    0.0004239637

-------
TIMINGS
-------

Total SCF gradient time            ...        0.261 sec

One electron gradient       ....       0.012 sec  (  4.5%)
RI-J Coulomb gradient       ....       0.099 sec  ( 38.1%)
XC gradient                 ....       0.073 sec  ( 28.0%)

Maximum memory used throughout the entire SCFGRAD-calculation: 6.6 MB
------------------------------------------------------------------------------
                         ORCA GEOMETRY RELAXATION STEP
------------------------------------------------------------------------------

Reading the OPT-File                    .... done
Getting information on internals        .... done
Copying old internal coords+grads       .... done
Making the new internal coordinates     .... (new redundants).... done
Validating the new internal coordinates .... (new redundants).... done
Calculating the B-matrix                .... done
Calculating the G,G- and P matrices     .... done
Transforming gradient to internals      .... done
Projecting the internal gradient        .... done
Number of atoms                         ....   3
Number of internal coordinates          ....   4
Current Energy                          ....  -188.256599121 Eh
Current gradient norm                   ....     0.000619803 Eh/bohr
Maximum allowed component of the step   ....  0.300
Current trust radius                    ....  0.300
Updating the Hessian (BFGS)             .... done
Forming the augmented Hessian           .... done
Diagonalizing the augmented Hessian     .... done
Last element of RFO vector              ....  0.999999835
Lowest eigenvalues of augmented Hessian:
 -0.000000356  0.536091088  0.536091152  1.076853841
Length of the computed step             ....  0.000574991
The final length of the internal step   ....  0.000574991
Converting the step to cartesian space:
 Initial RMS(Int)=    0.0002874957
Transforming coordinates:
 Iter   0:  RMS(Cart)=    0.0001916629 RMS(Int)=    0.0002874945
 Iter   1:  RMS(Cart)=    0.0000001428 RMS(Int)=    0.0000002365
 Iter   2:  RMS(Cart)=    0.0000000785 RMS(Int)=    0.0000001310
done
Storing new coordinates                 .... done

                                .--------------------.
          ----------------------|Geometry convergence|-------------------------
          Item                value                   Tolerance       Converged
          ---------------------------------------------------------------------
          Energy change      -0.0000269446            0.0000010000      NO
          RMS gradient        0.0003095910            0.0000300000      NO
          MAX gradient        0.0004378902            0.0001000000      NO
          RMS step            0.0002874957            0.0006000000      YES
          MAX step            0.0004068251            0.0010000000      YES
          ........................................................
          Max(Bonds)      0.0002      Max(Angles)    0.00
          Max(Dihed)        0.00      Max(Improp)    0.00
          ---------------------------------------------------------------------

The optimization has not yet converged - more geometry cycles are needed


    ---------------------------------------------------------------------------
                         Redundant Internal Coordinates
                            (Angstroem and degrees)

        Definition                    Value    dE/dq     Step     New-Value
    ----------------------------------------------------------------------------
     1. B(O   1,C   0)                1.1741 -0.000438  0.0002    1.1743   
     2. B(O   2,C   0)                1.1741 -0.000438  0.0002    1.1743   
     3. L(O   1,C   0,O   2, 2)       180.00 -0.000000    0.00    180.00   
     4. L(O   1,C   0,O   2, 1)       180.00  0.000001   -0.00    180.00   
    ----------------------------------------------------------------------------

         *************************************************************
         *                GEOMETRY OPTIMIZATION CYCLE   4            *
         *************************************************************
---------------------------------
CARTESIAN COORDINATES (ANGSTROEM)
---------------------------------
  C     -5.735408   -0.751794    0.000000
  O     -5.485795    0.395664   -0.000000
  O     -5.985037   -1.899249   -0.000000

----------------------------
CARTESIAN COORDINATES (A.U.)
----------------------------
  NO LB      ZA    FRAG     MASS         X           Y           Z
   0 C     6.0000    0    12.011  -10.838350   -1.420686    0.000000
   1 O     8.0000    0    15.999  -10.366649    0.747696   -0.000000
   2 O     8.0000    0    15.999  -11.310082   -3.589061   -0.000000

--------------------------------
INTERNAL COORDINATES (ANGSTROEM)
--------------------------------
 C      0   0   0     0.000000000000     0.00000000     0.00000000
 O      1   0   0     1.174294474136     0.00000000     0.00000000
 O      1   2   0     1.174294648061   179.99919908     0.00000000

---------------------------
INTERNAL COORDINATES (A.U.)
---------------------------
 C      0   0   0     0.000000000000     0.00000000     0.00000000
 O      1   0   0     2.219094956694     0.00000000     0.00000000
 O      1   2   0     2.219095285364   179.99919908     0.00000000



           ************************************************************
           *        Program running with 4 parallel MPI-processes     *
           *              working on a common directory               *
           ************************************************************
------------------------------------------------------------------------------
                   ___                                                        
                  /   \      - P O W E R E D   B Y -                         
                 /     \                                                     
                 |  |  |   _    _      __       _____    __    __             
                 |  |  |  | |  | |    /  \     |  _  \  |  |  /  |          
                  \  \/   | |  | |   /    \    | | | |  |  | /  /          
                 / \  \   | |__| |  /  /\  \   | |_| |  |  |/  /          
                |  |  |   |  __  | /  /__\  \  |    /   |      \           
                |  |  |   | |  | | |   __   |  |    \   |  |\   \          
                \     /   | |  | | |  |  |  |  | |\  \  |  | \   \       
                 \___/    |_|  |_| |__|  |__|  |_| \__\ |__|  \__/        
                                                                              
                      - O R C A' S   B I G   F R I E N D -                    
                                      &                                       
                       - I N T E G R A L  F E E D E R -                       
                                                                              
 v1 FN, 2020, v2 2021                                                         
------------------------------------------------------------------------------


Reading SHARK input file CO2_IR_2nd_order.SHARKINP.tmp ... ok
----------------------
SHARK INTEGRAL PACKAGE
----------------------

Number of atoms                             ...      3
Number of basis functions                   ...     42
Number of shells                            ...     18
Maximum angular momentum                    ...      2
Integral batch strategy                     ... SHARK/LIBINT Hybrid
RI-J (if used) integral strategy            ... SPLIT-RIJ (Revised 2003 algorithm where possible)
Printlevel                                  ...      1
Contraction scheme used                     ... SEGMENTED contraction
Coulomb Range Separation                    ... NOT USED
Exchange Range Separation                   ... NOT USED
Finite Nucleus Model                        ... NOT USED
Auxiliary Coulomb fitting basis             ... AVAILABLE
   # of basis functions in Aux-J            ...    147
   # of shells in Aux-J                     ...     45
   Maximum angular momentum in Aux-J        ...      4
Auxiliary J/K fitting basis                 ... NOT available
Auxiliary Correlation fitting basis         ... NOT available
Auxiliary 'external' fitting basis          ... NOT available
Integral threshold                          ...     2.500000e-11
Primitive cut-off                           ...     2.500000e-12
Primitive pair pre-selection threshold      ...     2.500000e-12

Calculating pre-screening integrals         ... done (  0.0 sec) Dimension = 18
Organizing shell pair data                  ... done (  0.0 sec)
Shell pair information
Total number of shell pairs                 ...       171
Shell pairs after pre-screening             ...       170
Total number of primitive shell pairs       ...       705
Primitive shell pairs kept                  ...       604
          la=0 lb=0:     44 shell pairs
          la=1 lb=0:     54 shell pairs
          la=1 lb=1:     21 shell pairs
          la=2 lb=0:     27 shell pairs
          la=2 lb=1:     18 shell pairs
          la=2 lb=2:      6 shell pairs

Calculating one electron integrals          ... done (  0.0 sec)
Calculating RI/J V-Matrix + Cholesky decomp.... done (  0.0 sec)
Calculating Nuclear repulsion               ... done (  0.0 sec) ENN=     57.681168683496 Eh

SHARK setup successfully completed in   0.1 seconds

Maximum memory used throughout the entire GTOINT-calculation: 8.9 MB


           ************************************************************
           *        Program running with 4 parallel MPI-processes     *
           *              working on a common directory               *
           ************************************************************

Diagonalization of the overlap matrix:
Smallest eigenvalue                        ... 9.198e-03
Time for diagonalization                   ...    0.001 sec
Threshold for overlap eigenvalues          ... 1.000e-08
Number of eigenvalues below threshold      ... 0
Time for construction of square roots      ...    0.000 sec
Total time needed                          ...    0.002 sec

-------------------
DFT GRID GENERATION
-------------------

General Integration Accuracy     IntAcc      ... 4.388
Radial Grid Type                 RadialGrid  ... OptM3 with GC (2021)
Angular Grid (max. ang.)         AngularGrid ... 4 (Lebedev-302)
Angular grid pruning method      GridPruning ... 4 (adaptive)
Weight generation scheme         WeightScheme... Becke
Basis function cutoff            BFCut       ... 1.0000e-11
Integration weight cutoff        WCut        ... 1.0000e-14
Angular grids for H and He will be reduced by one unit
Partially contracted basis set               ... off
Rotationally invariant grid construction     ... off

Total number of grid points                  ...    18366
Total number of batches                      ...      288
Average number of points per batch           ...       63
Average number of grid points per atom       ...     6122
Time for grid setup =    0.125 sec

--------------
SCF ITERATIONS
--------------
ITER       Energy         Delta-E        Max-DP      RMS-DP      [F,P]     Damp
               ***  Starting incremental Fock matrix formation  ***
                      *** Initiating the SOSCF procedure ***
                      *** Re-Reading the Fockian *** 
                      *** Removing any level shift *** 
ITER      Energy       Delta-E        Grad      Rot      Max-DP    RMS-DP
[...]
Total Dipole Moment    :     -0.00002      -0.00012       0.00000
                        -----------------------------------------
Magnitude (a.u.)       :      0.00012
Magnitude (Debye)      :      0.00030



--------------------
Rotational spectrum 
--------------------
 
Rotational constants in cm-1:     0.000000     0.382051     0.382051 
Rotational constants in MHz :     0.000000 11453.601669 11453.601669 

 Dipole components along the rotational axes: 
x,y,z [a.u.] :    -0.000118     0.000006    -0.000000 
x,y,z [Debye]:    -0.000301     0.000016    -0.000000 

 
Transforming and storing MO dipole integrals   ... done

                ... starting polarizability calculation

The origin for moment calculation is the CENTER OF MASS  = (-10.838361, -1.420683 -0.000000)
Opening the Dipole integral file               ... (CO2_IR_2nd_order.dmo.tmp) done
Reading Dipole-MO integrals                    ... done
Solving CP-SCF equations                       ... 

           ************************************************************
           *        Program running with 4 parallel MPI-processes     *
           *              working on a common directory               *
           ************************************************************

------------------------------------------------------------------------------
                           ORCA CP-SCF CALCULATION
------------------------------------------------------------------------------

Input orbitals are from        ... CO2_IR_2nd_order.gbw
Input Perturbation             ... CO2_IR_2nd_order.cpv.tmp
Wavefunction output            ... CO2_IR_2nd_order.cpu.tmp
Perturbation mode              ... Real perturbation (singlet)
Solver                         ... POPLE
Max. number of iterations      ... 64
Convergence tolerance          ... 1.000e-04
Integral handling              ... Direct
DFT GridXC                     ... 1
Number of perturbations        ... 3
Number of operators            ... 1
Orbital ranges used for CP-SCF:
 Operator 0:  Orbitals   0... 10  to  11... 41
Variables per perturbation     ... 341
DFT calculation                         ... on
XC functional terms                     ... on
Exchange functional (SCF)               ... PBE
Exchange functional (CP-SCF)            ... PBE
   PBE kappa parameter  XKappa (SCF)    ...  0.804000
   PBE kappa parameter  XKappa (CP-SCF) ...  0.804000
   PBE mue parameter   XMuePBE (SCF)    ...  0.219520
   PBE mue parameter   XMuePBE (CP-SCF) ...  0.219520
Correlation functional (SCF)            ... PBE
Correlation functional (CP-SCF)         ... PBE
   PBE beta parameter CBetaPBE (SCF)    ...  0.066725
   PBE beta parameter CBetaPBE (CP-SCF) ...  0.066725
 LDA part of GGA corr.  LDAOpt (SCF)    ... PW91-LDA
 LDA part of GGA corr.  LDAOpt (CP-SCF) ... PW91-LDA

CP-SCF GRID
-----------

General Integration Accuracy     IntAcc      ... 3.467
Radial Grid Type                 RadialGrid  ... OptM3 with GC (2021)
Angular Grid (max. ang.)         AngularGrid ... 1 (Lebedev-50)
Angular grid pruning method      GridPruning ... 4 (adaptive)
Weight generation scheme         WeightScheme... Becke
Basis function cutoff            BFCut       ... 1.0000e-11
Integration weight cutoff        WCut        ... 1.0000e-14
Angular grids for H and He will be reduced by one unit
Partially contracted basis set               ... off
Rotationally invariant grid construction     ... off

Total number of grid points                  ...     2900
Total number of batches                      ...       46
Average number of points per batch           ...       63
Average number of grid points per atom       ...      967

Recalculating density on grid  ... done
Calculating the xc-kernel      ... done
Memory available               ... 346.7 MB
Memory needed per perturbation ...   0.1 MB
Perturbations treated per batch... 3
Number of batches              ... 1
     CP-SCF ITERATION   0:   1.9856e+01 (   0.0 sec   0/  3 done)
     CP-SCF ITERATION   1:   2.2843e-01 (   0.0 sec   0/  3 done)
     CP-SCF ITERATION   2:   1.8362e-02 (   0.0 sec   0/  3 done)
     CP-SCF ITERATION   3:   2.0277e-03 (   0.0 sec   1/  3 done)
     CP-SCF ITERATION   4:   2.3742e-04 (   0.0 sec   1/  3 done)
     CP-SCF ITERATION   5:   1.1253e-04 (   0.0 sec   2/  3 done)
     CP-SCF ITERATION   6:   3.4090e-06 (   0.0 sec   3/  3 done)
                    *** THE CP-SCF HAS CONVERGED ***
done
Reading CP-SCF coefficients                    ... done
Doing the polarizability tensor                ... done
Cleaning up                                    ... done

-------------------------
THE POLARIZABILITY TENSOR
-------------------------

The raw cartesian tensor (atomic units):
    8.28932      2.99437      0.00000  
    2.99437     21.40041      0.00000  
    0.00000      0.00000      7.63762  
diagonalized tensor: 
    7.63762      7.63782     22.05191  

    0.00000     -0.97714     -0.21260  
   -0.00000      0.21260     -0.97714  
    1.00000      0.00000     -0.00000  

Isotropic polarizability :  12.44245


----------------------------------------------------------------------------
                           ORCA NUMERICAL FREQUENCIES
                              (4-process run)
----------------------------------------------------------------------------

Number of atoms                ... 3
Central differences            ... used
Number of displacements        ... 18
Numerical increment            ... 5.000e-03 bohr
IR-spectrum generation         ... on
Raman-spectrum generation      ... on
Polarizability calculation     ... 1
Surface Crossing Hessian       ... off

The output will be reduced. Please look at the following files:
SCF program output             ... >CO2_IR_2nd_order.lastscf
Integral program output        ... >CO2_IR_2nd_order.lastint
Gradient program output        ... >CO2_IR_2nd_order.lastgrad
Dipole moment program output   ... >CO2_IR_2nd_order.lastmom
AutoCI program output          ... >CO2_IR_2nd_order.lastautoci

	<< Calculating on displaced geometry   3 (of  18) >>
	<< Calculating on displaced geometry   1 (of  18) >>
	<< Calculating on displaced geometry   4 (of  18) >>
	<< Calculating on displaced geometry   2 (of  18) >>
	<< Calculating on displaced geometry   5 (of  18) >>
	<< Calculating on displaced geometry   7 (of  18) >>
	<< Calculating on displaced geometry   6 (of  18) >>
	<< Calculating on displaced geometry   8 (of  18) >>
	<< Calculating on displaced geometry  10 (of  18) >>
	<< Calculating on displaced geometry  12 (of  18) >>
	<< Calculating on displaced geometry   9 (of  18) >>
	<< Calculating on displaced geometry  11 (of  18) >>
	<< Calculating on displaced geometry  13 (of  18) >>
	<< Calculating on displaced geometry  14 (of  18) >>
	<< Calculating on displaced geometry  16 (of  18) >>
	<< Calculating on displaced geometry  15 (of  18) >>
	<< Calculating on displaced geometry  17 (of  18) >>
	<< Calculating on displaced geometry  18 (of  18) >>

------------------------------------------------------
Computing overtones and combination bands (delq 0.500)
------------------------------------------------------

	<< Calculating on displaced geometry   3 (of  45) >>
	<< Calculating on displaced geometry   1 (of  45) >>
	<< Calculating on displaced geometry   2 (of  45) >>
	<< Calculating on displaced geometry   4 (of  45) >>
	<< Calculating on displaced geometry   5 (of  45) >>
	<< Calculating on displaced geometry   6 (of  45) >>
	<< Calculating on displaced geometry   7 (of  45) >>
	<< Calculating on displaced geometry   8 (of  45) >>
	<< Calculating on displaced geometry   9 (of  45) >>
	<< Calculating on displaced geometry  10 (of  45) >>
	<< Calculating on displaced geometry  11 (of  45) >>
	<< Calculating on displaced geometry  12 (of  45) >>
	<< Calculating on displaced geometry  13 (of  45) >>
	<< Calculating on displaced geometry  14 (of  45) >>
	<< Calculating on displaced geometry  15 (of  45) >>
	<< Calculating on displaced geometry  16 (of  45) >>
	<< Calculating on displaced geometry  18 (of  45) >>
	<< Calculating on displaced geometry  17 (of  45) >>
	<< Calculating on displaced geometry  19 (of  45) >>
	<< Calculating on displaced geometry  20 (of  45) >>
	<< Calculating on displaced geometry  22 (of  45) >>
	<< Calculating on displaced geometry  21 (of  45) >>
	<< Calculating on displaced geometry  23 (of  45) >>
	<< Calculating on displaced geometry  24 (of  45) >>
	<< Calculating on displaced geometry  25 (of  45) >>
	<< Calculating on displaced geometry  26 (of  45) >>
	<< Calculating on displaced geometry  28 (of  45) >>
	<< Calculating on displaced geometry  27 (of  45) >>
	<< Calculating on displaced geometry  29 (of  45) >>
	<< Calculating on displaced geometry  30 (of  45) >>
	<< Calculating on displaced geometry  32 (of  45) >>
	<< Calculating on displaced geometry  31 (of  45) >>
	<< Calculating on displaced geometry  33 (of  45) >>
	<< Calculating on displaced geometry  34 (of  45) >>
	<< Calculating on displaced geometry  36 (of  45) >>
	<< Calculating on displaced geometry  35 (of  45) >>
	<< Calculating on displaced geometry  38 (of  45) >>
	<< Calculating on displaced geometry  37 (of  45) >>
	<< Calculating on displaced geometry  39 (of  45) >>
	<< Calculating on displaced geometry  40 (of  45) >>
	<< Calculating on displaced geometry  42 (of  45) >>
	<< Calculating on displaced geometry  43 (of  45) >>
	<< Calculating on displaced geometry  41 (of  45) >>
	<< Calculating on displaced geometry  44 (of  45) >>
	<< Calculating on displaced geometry  45 (of  45) >>

-----------------------
VIBRATIONAL FREQUENCIES
-----------------------

Scaling factor for frequencies =  1.000000000 (already applied!)

   0:         0.00 cm**-1
   1:         0.00 cm**-1
   2:         0.00 cm**-1
   3:         0.00 cm**-1
   4:         0.00 cm**-1
   5:       623.22 cm**-1
   6:       624.09 cm**-1
   7:      1339.10 cm**-1
   8:      2421.82 cm**-1


------------
NORMAL MODES
------------

These modes are the cartesian displacements weighted by the diagonal matrix
M(i,i)=1/sqrt(m[i]) where m[i] is the mass of the displaced atom
Thus, these vectors are normalized but *not* orthogonal

                  0          1          2          3          4          5    
      0       0.000000   0.000000   0.000000   0.000000   0.000000  -0.863117
      1       0.000000   0.000000   0.000000   0.000000   0.000000   0.187569
      2       0.000000   0.000000   0.000000   0.000000   0.000000  -0.000005
      3       0.000000   0.000000   0.000000   0.000000   0.000000   0.323987
      4       0.000000   0.000000   0.000000   0.000000   0.000000  -0.070401
      5       0.000000   0.000000   0.000000   0.000000   0.000000   0.000002
      6       0.000000   0.000000   0.000000   0.000000   0.000000   0.323984
      7       0.000000   0.000000   0.000000   0.000000   0.000000  -0.070413
      8       0.000000   0.000000   0.000000   0.000000   0.000000   0.000002
                  6          7          8    
      0       0.000004  -0.000010   0.187569
      1      -0.000001   0.000001   0.863117
      2      -0.883262   0.000000   0.000000
      3      -0.000002  -0.150307  -0.070405
      4       0.000000  -0.690946  -0.323987
      5       0.331548  -0.000000  -0.000000
      6      -0.000002   0.150314  -0.070409
      7       0.000000   0.690946  -0.323984
      8       0.331548  -0.000000  -0.000000


-----------
IR SPECTRUM
-----------

 Mode   freq       eps      Int      T**2         TX        TY        TZ
       cm**-1   L/(mol*cm) km/mol    a.u.
----------------------------------------------------------------------------
  5:    623.22   0.004590   23.20  0.002299  (-0.046849  0.010183 -0.000000)
  6:    624.09   0.004590   23.20  0.002295  ( 0.000000 -0.000000 -0.047910)
  7:   1339.10   0.000000    0.00  0.000000  (-0.000000 -0.000000  0.000000)
  8:   2421.82   0.096980  490.10  0.012496  ( 0.023745  0.109236  0.000000)

* The epsilon (eps) is given for a Dirac delta lineshape.
** The dipole moment derivative (T) already includes vibrational overlap.

-------------------------------
OVERTONES AND COMBINATION BANDS
-------------------------------

   Mode     freq       eps      Int      T**2        TX        TY        TZ
           cm**-1   L/(mol*cm) km/mol    a.u.
-------------------------------------------------------------------------------
  5+   5:  1246.45   0.000000    0.00  0.000000  ( 0.000000 -0.000000  0.000000)
  5+   6:  1247.31   0.000000    0.00  0.000000  ( 0.000000 -0.000000  0.000000)
  5+   7:  1962.32   0.000008    0.04  0.000001  (-0.001108 -0.000194  0.000000)
  5+   8:  3045.05   0.000000    0.00  0.000000  ( 0.000000  0.000000  0.000000)
  6+   6:  1248.17   0.000000    0.00  0.000000  ( 0.000000 -0.000000  0.000000)
  6+   7:  1963.19   0.000007    0.04  0.000001  (-0.000000  0.000000 -0.001088)
  6+   8:  3045.91   0.000000    0.00  0.000000  ( 0.000000  0.000000  0.000000)
  7+   7:  2678.20   0.000000    0.00  0.000000  (-0.000000 -0.000000 -0.000000)
  7+   8:  3760.92   0.002608   13.18  0.000216  ( 0.003249  0.014348  0.000000)
  8+   8:  4843.64   0.000000    0.00  0.000000  ( 0.000000  0.000000  0.000000)

* The epsilon (eps) is given for a Dirac delta lineshape.
** The dipole moment derivative (T) already includes vibrational overlap.

--------------
RAMAN SPECTRUM  
--------------

 Mode    freq (cm**-1)   Activity   Depolarization
-------------------------------------------------------------------
   5:       623.22      0.000000      0.554049
   6:       624.09      0.000000      0.749886
   7:      1339.10     15.284764      0.176393
   8:      2421.82      0.000000      0.722530

The first frequency considered to be a vibration is 5
The total number of vibrations considered is 4


--------------------------
THERMOCHEMISTRY AT 298.15K
--------------------------

Temperature         ... 298.15 K
Pressure            ... 1.00 atm
Total Mass          ... 44.01 AMU
The molecule is recognized as being linear

Throughout the following assumptions are being made:
  (1) The electronic state is orbitally nondegenerate
  (2) There are no thermally accessible electronically excited states
  (3) Hindered rotations indicated by low frequency modes are not
      treated as such but are treated as vibrations and this may
      cause some error
  (4) All equations used are the standard statistical mechanics
      equations for an ideal gas
  (5) All vibrations are strictly harmonic

freq.     623.22  E(vib)   ...       0.09 
freq.     624.09  E(vib)   ...       0.09 
freq.    1339.10  E(vib)   ...       0.01 
freq.    2421.82  E(vib)   ...       0.00 

------------
INNER ENERGY
------------

The inner energy is: U= E(el) + E(ZPE) + E(vib) + E(rot) + E(trans)
    E(el)   - is the total energy from the electronic structure calculation
              = E(kin-el) + E(nuc-el) + E(el-el) + E(nuc-nuc)
    E(ZPE)  - the the zero temperature vibrational energy from the frequency calculation
    E(vib)  - the the finite temperature correction to E(ZPE) due to population
              of excited vibrational states
    E(rot)  - is the rotational thermal energy
    E(trans)- is the translational thermal energy

Summary of contributions to the inner energy U:
Electronic energy                ...    -10.30461354 Eh
Zero point energy                ...      0.01140959 Eh       7.16 kcal/mol
Thermal vibrational correction   ...      0.00030445 Eh       0.19 kcal/mol
Thermal rotational correction    ...      0.00094418 Eh       0.59 kcal/mol
Thermal translational correction ...      0.00141627 Eh       0.89 kcal/mol
-----------------------------------------------------------------------
Total thermal energy                    -10.29053904 Eh


Summary of corrections to the electronic energy:
(perhaps to be used in another calculation)
Total thermal correction                  0.00266491 Eh       1.67 kcal/mol
Non-thermal (ZPE) correction              0.01140959 Eh       7.16 kcal/mol
-----------------------------------------------------------------------
Total correction                          0.01407450 Eh       8.83 kcal/mol


--------
ENTHALPY
--------

The enthalpy is H = U + kB*T
                kB is Boltzmann's constant
Total free energy                 ...    -10.29053904 Eh 
Thermal Enthalpy correction       ...      0.00094421 Eh       0.59 kcal/mol
-----------------------------------------------------------------------
Total Enthalpy                    ...    -10.28959483 Eh


Note: Rotational entropy computed according to Herzberg 
Infrared and Raman Spectra, Chapter V,1, Van Nostrand Reinhold, 1945 
Point Group:  Dinfh, Symmetry Number:   2  
Rotational constants in cm-1:     0.000000     0.382051     0.382051 

Vibrational entropy computed according to the QRRHO of S. Grimme
Chem.Eur.J. 2012 18 9955


-------
ENTROPY
-------

The entropy contributions are T*S = T*(S(el)+S(vib)+S(rot)+S(trans))
     S(el)   - electronic entropy
     S(vib)  - vibrational entropy
     S(rot)  - rotational entropy
     S(trans)- translational entropy
The entropies will be listed as multiplied by the temperature to get
units of energy

Electronic entropy                ...      0.00000000 Eh      0.00 kcal/mol
Vibrational entropy               ...      0.00040183 Eh      0.25 kcal/mol
Rotational entropy                ...      0.00623430 Eh      3.91 kcal/mol
Translational entropy             ...      0.01770880 Eh     11.11 kcal/mol
-----------------------------------------------------------------------
Final entropy term                ...      0.02434493 Eh     15.28 kcal/mol

In case the symmetry of your molecule has not been determined correctly
or in case you have a reason to use a different symmetry number we print 
out the resulting rotational entropy values for sn=1,12 :
 --------------------------------------------------------
|  sn= 1 | S(rot)=      -0.00105806 Eh     -0.66 kcal/mol|
|  sn= 2 | S(rot)=      -0.00171251 Eh     -1.07 kcal/mol|
|  sn= 3 | S(rot)=      -0.00209534 Eh     -1.31 kcal/mol|
|  sn= 4 | S(rot)=      -0.00236697 Eh     -1.49 kcal/mol|
|  sn= 5 | S(rot)=      -0.00257766 Eh     -1.62 kcal/mol|
|  sn= 6 | S(rot)=      -0.00274980 Eh     -1.73 kcal/mol|
|  sn= 7 | S(rot)=      -0.00289535 Eh     -1.82 kcal/mol|
|  sn= 8 | S(rot)=      -0.00302142 Eh     -1.90 kcal/mol|
|  sn= 9 | S(rot)=      -0.00313263 Eh     -1.97 kcal/mol|
|  sn=10 | S(rot)=      -0.00323211 Eh     -2.03 kcal/mol|
|  sn=11 | S(rot)=      -0.00332210 Eh     -2.08 kcal/mol|
|  sn=12 | S(rot)=      -0.00340426 Eh     -2.14 kcal/mol|
 --------------------------------------------------------


-------------------
GIBBS FREE ENERGY
-------------------

The Gibbs free energy is G = H - T*S

Total enthalpy                    ...    -10.28959483 Eh 
Total entropy correction          ...     -0.02434493 Eh    -15.28 kcal/mol
-----------------------------------------------------------------------
Final Gibbs free energy         ...    -10.31393976 Eh

For completeness - the Gibbs free energy minus the electronic energy
G-E(el)                           ...     -0.00932622 Eh     -5.85 kcal/mol



Timings for individual modules:

Sum of individual times         ...       79.632 sec (=   1.327 min)
GTO integral calculation        ...        2.622 sec (=   0.044 min)   3.3 %
SCF iterations                  ...        4.828 sec (=   0.080 min)   6.1 %
Solution of CP-SCF eqns.        ...        0.578 sec (=   0.010 min)   0.7 %
SCF Gradient evaluation         ...        2.630 sec (=   0.044 min)   3.3 %
Geometry relaxation             ...        0.057 sec (=   0.001 min)   0.1 %
Numerical frequency calculation ...       68.542 sec (=   1.142 min)  86.1 %
XTB module                      ...        0.376 sec (=   0.006 min)   0.5 %
                             ****ORCA TERMINATED NORMALLY****
TOTAL RUN TIME: 0 days 0 hours 1 minutes 19 seconds 137 msec
