
                                 *****************
                                 * O   R   C   A *
                                 *****************

                                            #,                                       
                                            ###                                      
                                            ####                                     
                                            #####                                    
                                            ######                                   
                                           ########,                                 
                                     ,,################,,,,,                         
                               ,,#################################,,                 
                          ,,##########################################,,             
                       ,#########################################, ''#####,          
                    ,#############################################,,   '####,        
                  ,##################################################,,,,####,       
                ,###########''''           ''''###############################       
              ,#####''   ,,,,##########,,,,          '''####'''          '####       
            ,##' ,,,,###########################,,,                        '##       
           ' ,,###''''                  '''############,,,                           
         ,,##''                                '''############,,,,        ,,,,,,###''
      ,#''                                            '''#######################'''  
     '                                                          ''''####''''         
             ,#######,   #######,   ,#######,      ##                                
            ,#'     '#,  ##    ##  ,#'     '#,    #''#        ######   ,####,        
            ##       ##  ##   ,#'  ##            #'  '#       #        #'  '#        
            ##       ##  #######   ##           ,######,      #####,   #    #        
            '#,     ,#'  ##    ##  '#,     ,#' ,#      #,         ##   #,  ,#        
             '#######'   ##     ##  '#######'  #'      '#     #####' # '####'        



                  #######################################################
                  #                        -***-                        #
                  #          Department of theory and spectroscopy      #
                  #    Directorship and core code : Frank Neese         #
                  #        Max Planck Institute fuer Kohlenforschung    #
                  #                Kaiser Wilhelm Platz 1               #
                  #                 D-45470 Muelheim/Ruhr               #
                  #                      Germany                        #
                  #                                                     #
                  #                  All rights reserved                #
                  #                        -***-                        #
                  #######################################################


                         Program Version 5.0.4 -  RELEASE  -


 With contributions from (in alphabetic order):
   Daniel Aravena         : Magnetic Suceptibility
   Michael Atanasov       : Ab Initio Ligand Field Theory (pilot matlab implementation)
   Alexander A. Auer      : GIAO ZORA, VPT2 properties, NMR spectrum
   Ute Becker             : Parallelization
   Giovanni Bistoni       : ED, misc. LED, open-shell LED, HFLD
   Martin Brehm           : Molecular dynamics
   Dmytro Bykov           : SCF Hessian
   Vijay G. Chilkuri      : MRCI spin determinant printing, contributions to CSF-ICE
   Dipayan Datta          : RHF DLPNO-CCSD density
   Achintya Kumar Dutta   : EOM-CC, STEOM-CC
   Dmitry Ganyushin       : Spin-Orbit,Spin-Spin,Magnetic field MRCI
   Miquel Garcia          : C-PCM and meta-GGA Hessian, CC/C-PCM, Gaussian charge scheme
   Yang Guo               : DLPNO-NEVPT2, F12-NEVPT2, CIM, IAO-localization
   Andreas Hansen         : Spin unrestricted coupled pair/coupled cluster methods
   Benjamin Helmich-Paris : MC-RPA, TRAH-SCF, COSX integrals
   Lee Huntington         : MR-EOM, pCC
   Robert Izsak           : Overlap fitted RIJCOSX, COSX-SCS-MP3, EOM
   Marcus Kettner         : VPT2
   Christian Kollmar      : KDIIS, OOCD, Brueckner-CCSD(T), CCSD density, CASPT2, CASPT2-K
   Simone Kossmann        : Meta GGA functionals, TD-DFT gradient, OOMP2, MP2 Hessian
   Martin Krupicka        : Initial AUTO-CI
   Lucas Lang             : DCDCAS
   Marvin Lechner         : AUTO-CI (C++ implementation), FIC-MRCC
   Dagmar Lenk            : GEPOL surface, SMD
   Dimitrios Liakos       : Extrapolation schemes; Compound Job, initial MDCI parallelization
   Dimitrios Manganas     : Further ROCIS development; embedding schemes
   Dimitrios Pantazis     : SARC Basis sets
   Anastasios Papadopoulos: AUTO-CI, single reference methods and gradients
   Taras Petrenko         : DFT Hessian,TD-DFT gradient, ASA, ECA, R-Raman, ABS, FL, XAS/XES, NRVS
   Peter Pinski           : DLPNO-MP2, DLPNO-MP2 Gradient
   Christoph Reimann      : Effective Core Potentials
   Marius Retegan         : Local ZFS, SOC
   Christoph Riplinger    : Optimizer, TS searches, QM/MM, DLPNO-CCSD(T), (RO)-DLPNO pert. Triples
   Tobias Risthaus        : Range-separated hybrids, TD-DFT gradient, RPA, STAB
   Michael Roemelt        : Original ROCIS implementation
   Masaaki Saitow         : Open-shell DLPNO-CCSD energy and density
   Barbara Sandhoefer     : DKH picture change effects
   Avijit Sen             : IP-ROCIS
   Kantharuban Sivalingam : CASSCF convergence, NEVPT2, FIC-MRCI
   Bernardo de Souza      : ESD, SOC TD-DFT
   Georgi Stoychev        : AutoAux, RI-MP2 NMR, DLPNO-MP2 response
   Willem Van den Heuvel  : Paramagnetic NMR
   Boris Wezisla          : Elementary symmetry handling
   Frank Wennmohs         : Technical directorship


 We gratefully acknowledge several colleagues who have allowed us to
 interface, adapt or use parts of their codes:
   Stefan Grimme, W. Hujo, H. Kruse, P. Pracht,  : VdW corrections, initial TS optimization,
                  C. Bannwarth, S. Ehlert          DFT functionals, gCP, sTDA/sTD-DF
   Ed Valeev, F. Pavosevic, A. Kumar             : LibInt (2-el integral package), F12 methods
   Garnet Chan, S. Sharma, J. Yang, R. Olivares  : DMRG
   Ulf Ekstrom                                   : XCFun DFT Library
   Mihaly Kallay                                 : mrcc  (arbitrary order and MRCC methods)
   Jiri Pittner, Ondrej Demel                    : Mk-CCSD
   Frank Weinhold                                : gennbo (NPA and NBO analysis)
   Christopher J. Cramer and Donald G. Truhlar   : smd solvation model
   Lars Goerigk                                  : TD-DFT with DH, B97 family of functionals
   V. Asgeirsson, H. Jonsson                     : NEB implementation
   FAccTs GmbH                                   : IRC, NEB, NEB-TS, DLPNO-Multilevel, CI-OPT
                                                   MM, QMMM, 2- and 3-layer-ONIOM, Crystal-QMMM,
                                                   LR-CPCM, SF, NACMEs, symmetry and pop. for TD-DFT,
                                                   nearIR, NL-DFT gradient (VV10), updates on ESD,
                                                   ML-optimized integration grids
   S Lehtola, MJT Oliveira, MAL Marques          : LibXC Library
   Liviu Ungur et al                             : ANISO software


 Your calculation uses the libint2 library for the computation of 2-el integrals
 For citations please refer to: http://libint.valeyev.net

 Your ORCA version has been built with support for libXC version: 5.1.0
 For citations please refer to: https://tddft.org/programs/libxc/

 This ORCA versions uses:
   CBLAS   interface :  Fast vector & matrix operations
   LAPACKE interface :  Fast linear algebra routines
   SCALAPACK package :  Parallel linear algebra routines
   Shared memory     :  Shared parallel matrices
   BLAS/LAPACK       :  OpenBLAS 0.3.15  USE64BITINT DYNAMIC_ARCH NO_AFFINITY SkylakeX SINGLE_THREADED
        Core in use  :  SkylakeX
   Copyright (c) 2011-2014, The OpenBLAS Project




***************************************
The coordinates will be read from file: NEB_reactant.xyz
***************************************


Your calculation utilizes the atom-pairwise dispersion correction
with the Becke-Johnson damping scheme (D3BJ)
Cite in your paper:
S.Grimme, S.Ehrlich, L.Goerigk, J Comput Chem, (2011), 32, 1456–1465 
S.Grimme, J.Antony, S.Ehrlich and H.Krieg, J.Chem.Phys., 132, (2010), 154104 
   

Your calculation utilizes a Nudged-Elastic-Band implementation
 by V.Asgeirsson, C. Riplinger & H. Jonsson
Please cite in your paper:
 V. Asgeirsson et al., in prep. (2019)
   

================================================================================

----- Orbital basis set information -----
Your calculation utilizes the basis: def2-SVP
   F. Weigend and R. Ahlrichs, Phys. Chem. Chem. Phys. 7, 3297 (2005).

----- AuxJ basis set information -----
Your calculation utilizes the auxiliary basis: def2/J
   F. Weigend, Phys. Chem. Chem. Phys. 8, 1057 (2006).

================================================================================
                                        WARNINGS
                       Please study these warnings very carefully!
================================================================================


WARNING: Geometry Optimization
  ===> : Switching off AutoStart
         For restart on a previous wavefunction, please use MOREAD

INFO   : the flag for use of the SHARK integral package has been found!

================================================================================
                                       INPUT FILE
================================================================================
NAME = NEB-TS_with_guess.inp
|  1> %pal
|  2>   nprocs 4
|  3> end
|  4> 
|  5> %maxcore 750
|  6> 
|  7> ! PBE def2-SVP D3BJ
|  8> ! NEB-TS
|  9> 
| 10> %neb
| 11>   product "NEB_product.xyz"
| 12>   ts "NEB_ts_guess.xyz"
| 13>   nimages 5
| 14> end
| 15> 
| 16> * xyzfile 0 1 NEB_reactant.xyz
| 17> 
| 18>                          ****END OF INPUT****
================================================================================


--------------------------------------------------------------------------------
                        Nudged Elastic Band Calculation
--------------------------------------------------------------------------------

Number of images (incl. end points)     ....  7
Number of intermediate images           ....  5
Number of optimized images              ....  5
Optimization of end points before NEB   ....  NO
Use existing gbw files for MO input     ....  NO
Number of atoms                         ....  7
Number of (active) degrees of freedom   ....  21
Constrained atoms                       ....  None

-----------------------------------------
  REACTANT (ANGSTROEM)
-----------------------------------------
C     -4.283709     1.625615    -0.002642 
C     -2.974068     0.889792     0.008208 
H     -3.024283     0.063020     0.735501 
H     -2.144976     1.563000     0.255117 
H     -2.807253     0.423646    -0.976643 
O     -4.416673     2.808623     0.230366 
H     -5.177487     0.992025    -0.249898 

-----------------------------------------
  PRODUCT (ANGSTROEM)
-----------------------------------------
C     -4.278583     1.484518     0.033611 
C     -3.070429     0.911286     0.052179 
H     -2.193945     1.412820     0.468350 
H     -3.806505     3.140723     0.865082 
H     -2.937113    -0.087695    -0.356607 
O     -4.609602     2.722461     0.502765 
H     -5.158632     0.988607    -0.380772 



----------------------
NEB settings
----------------------
Method type                             ....  climbing image
Threshold for climbing image            ....  2.00e-02 Eh/Bohr 
Free endpoints                          ....  off 
Tangent type                            ....  improved 
Number of intermediate images           ....  5 
Number of images free to move           ....  5 
Spring type for image distribution      ....  distance between adjacent images 
Spring constant                         ....  energy weighted (0.0100 -to- 0.1000) Eh/Bohr^2 
Spring force perp. to the path          ....  none 
Generation of initial path              ....  image dependent pair potential 
Initial path via TS guess (as image #)  ....  NEB_ts_guess.xyz (determined on-the-fly)
Minimization of RMSD: Rotation          ....  always 
Minimization of RMSD: Translation type  ....  centroid 
Center fixed to origin                  ....  true 
Remove external force                   ....  true 

Reparametrization of the path           ....  off 
Convergence thresholds:
Convergence monitored for               ....  all images
Scaling factor                          ....  10.00

Convergence parameters for regular images:
               Max(|Fp|)                ....  2.00e-02 Eh/Bohr
               RMS(Fp)                  ....  1.00e-02 Eh/Bohr

Convergence parameters for climbing image:
               Max(|F|)                 ....  2.00e-03 Eh/Bohr
               RMS(F)                   ....  1.00e-03 Eh/Bohr
Optimization method:
Method                                  ....  L-BFGS
Max. iterations                         ....  500 
Step size                               ....  1.00 
Maximum allowed step size               ....  0.10 Bohr

LBFGS parameters: 
               Memory                   ....  20 
               Initial step size        ....  0.0010 
               Estimate curvature       ....  YES 
               Reset on maxmove         ....  YES 
               Reparam. on reset        ....  NO 
Generation of  the initial path:
Minimize RMSD between reactant and TS configurations          .... done
       RMSD (R-TS) before minimization  ....  4.1199 Bohr
       RMSD (R-TS) after minimization   ....  0.5454 Bohr
Minimize RMSD between TS and product configurations           .... done
       RMSD (TS-P) before minimization  ....  4.4622 Bohr
       RMSD (TS-P) after minimization   ....  0.5674 Bohr
Optimal image number for TS guess       ....  3
Performing linear interpolation         ....  done
Interpolation using                     ....  IDPP (Image Dependent Pair Potential)
IDPP-Settings:
       Remove global transl. and rot.   ...   true
       Convergence tolerance            ....  0.0100 1/Ang.^3
       Max. numer of iterations         ....    7000
       Spring constant                  ....  1.0000 1/Ang.^4
       Time step                        ....  0.0100 fs
       Max. movement per iteration      ....  0.0500 Ang.
       Full print                       ....  false 
Running IDPP from reactant to TS guess structure:
idpp initial path generation successfully converged in 99 iterations
Running IDPP from TS guess structure to product:
idpp initial path generation successfully converged in 85 iterations
Displacement along initial path:              5.1451 Bohr
Writing initial trajectory to file      ....  NEB-TS_with_guess_initial_path_trj.xyz



----------------------
NEB OPTIMIZATION      
----------------------

Following output files will be written:
Energy profile during opt. written to    ....  NEB-TS_with_guess.interp
Optimization log-file                    ....  NEB-TS_with_guess.NEB.log
Current trajectory will be written to    ....  NEB-TS_with_guess_MEP_trj.xyz
       and to allxyz file                ....  NEB-TS_with_guess_MEP.allxyz
       and individual images to xyz file ....  NEB-TS_with_guess_im{NIm}.xyz
Trajectory history will be written to    ....  NEB-TS_with_guess_MEP_ALL_trj.xyz
Converged CI will be written to          ....  NEB-TS_with_guess_NEB-CI_converged.xyz
Converged TS will be written to          ....  NEB-TS_with_guess_NEB-TS_converged.xyz

Single point energy and gradient calculation of reactant and
product configurations (have to be performed only once)
Properties of fixed NEB end points:
               Reactant:
                         E               ....   -153.531199 Eh
                         RMS(F)          ....      0.003161 Eh/Bohr
                         MAX(|F|)        ....      0.004949 Eh/Bohr
               Product:
                         E               ....   -153.513746 Eh
                         RMS(F)          ....      0.004490 Eh/Bohr
                         MAX(|F|)        ....      0.012521 Eh/Bohr



Starting iterations:

Optim.  Iteration  HEI  E(HEI)-E(0)  max(|Fp|)   RMS(Fp)    dS
Switch-on CI threshold               0.020000 
   LBFGS     0      3    0.096676    0.074969   0.016467  5.1451       
   LBFGS     1      3    0.096674    0.047990   0.009945  5.1409       
   LBFGS     2      3    0.096662    0.045660   0.007963  5.2121       
   LBFGS     3      3    0.096638    0.033101   0.006121  5.2269       
   LBFGS     4      3    0.096600    0.036111   0.006346  5.2644       
   LBFGS     5      3    0.096465    0.036397   0.007119  5.4362       
   LBFGS     6      3    0.096490    0.026856   0.005013  5.4487       
   LBFGS     7      3    0.096499    0.016336   0.003106  5.4609       

Image  3 will be converted to a climbing image in the next iteration (max(|Fp|) < 0.0200) 

Optim.  Iteration  CI   E(CI)-E(0)   max(|Fp|)   RMS(Fp)    dS     max(|FCI|)   RMS(FCI)
Convergence thresholds               0.020000   0.010000            0.002000    0.001000 
   LBFGS     8      3    0.096487    0.012482   0.003113  5.4672    0.005247    0.002150       
   LBFGS     9      3    0.096580    0.020780   0.003452  5.4836    0.003969    0.001579       
   LBFGS    10      3    0.096686    0.039350   0.006609  5.6125    0.000729    0.000394       
   LBFGS    11      3    0.096685    0.004430   0.001204  5.6058    0.000652    0.000324       

                                .--------------------.
          ----------------------| CI-NEB convergence |-------------------------
          Item                value                   Tolerance       Converged
          ---------------------------------------------------------------------
          RMS(Fp)             0.0012042610            0.0100000000      YES
          MAX(|Fp|)           0.0044296925            0.0200000000      YES
          RMS(FCI)            0.0003235144            0.0010000000      YES
          MAX(|FCI|)          0.0006517413            0.0020000000      YES
          ---------------------------------------------------------------------

The elastic band and climbing image have converged successfully to a MEP in 11 iterations!


                    *********************H U R R A Y*********************
                    ***        THE NEB OPTIMIZATION HAS CONVERGED     ***
                    *****************************************************



---------------------------------------------------------------
                         PATH SUMMARY              
---------------------------------------------------------------
All forces in Eh/Bohr.

Image Dist.(Ang.)    E(Eh)   dE(kcal/mol)  max(|Fp|)  RMS(Fp)
  0     0.000    -153.53120      0.00       0.00505   0.00313
  1     0.947    -153.49759     21.09       0.00443   0.00230
  2     1.249    -153.45403     48.43       0.00177   0.00090
  3     1.478    -153.43451     60.67       0.00083   0.00030 <= CI
  4     1.774    -153.46182     43.53       0.00423   0.00143
  5     2.151    -153.49327     23.80       0.00173   0.00076
  6     2.966    -153.51375     10.95       0.01251   0.00448

Straight line distance between images along the path:
        D( 0- 1) =   0.9468 Ang.
        D( 1- 2) =   0.3027 Ang.
        D( 2- 3) =   0.2288 Ang.
        D( 3- 4) =   0.2960 Ang.
        D( 4- 5) =   0.3771 Ang.
        D( 5- 6) =   0.8151 Ang.

---------------------------------------------------------------
               INFORMATION ABOUT SADDLE POINT     
---------------------------------------------------------------

Climbing image                            ....  3 
Energy                                    ....  -153.43451377 Eh
Max. abs. force                           ....  6.5174e-04 Eh/Bohr

-----------------------------------------
  SADDLE POINT (ANGSTROEM)
-----------------------------------------
C     -0.662879     0.280099    -0.097434 
C      0.508137    -0.513434    -0.168279 
H      0.836210    -0.860831     0.832132 
H      0.741157     0.863755     0.386507 
H      0.696345    -1.242798    -0.973424 
O     -0.452275     1.365706     0.566144 
H     -1.666696     0.107502    -0.545646 

-----------------------------------------
  FORCES (Eh/Bohr)
-----------------------------------------
C      0.000143     0.000034     0.000018 
C     -0.000190    -0.000304    -0.000205 
H      0.000270     0.000123    -0.000141 
H      0.000452     0.000590     0.000652 
H     -0.000181    -0.000564    -0.000166 
O     -0.000645    -0.000109    -0.000189 
H      0.000151     0.000230     0.000031 

-----------------------------------------
  UNIT TANGENT
-----------------------------------------
C      0.106212    -0.151067    -0.127103 
C     -0.178669    -0.296587    -0.106136 
H      0.168863     0.145843    -0.073559 
H     -0.398525     0.531171     0.351355 
H     -0.086598    -0.219429    -0.044376 
O      0.343260    -0.095209     0.050566 
H      0.045458     0.085279    -0.050746 
 => Unit tangent is an approximation to the TS mode at the saddle point

Next a TS optimization is performed on the CI from the NEB run.

         *************************************************************
         *                       TS OPTIMIZATION                     *
         *************************************************************


Following output files will be written:
Converged TS will be written to          ....  NEB-TS_with_guess_NEB-TS_converged.xyz
                                         ....  NEB-TS_with_guess.xyz
Current trajectory will be written to    ....  NEB-TS_with_guess_trj.xyz
Initial Hessian will be stored in        ....  NEB-TS_with_guess.appr.hess
Geometry optimization settings:
Update method            Update   .... Bofill
Choice of coordinates    CoordSys .... Z-matrix Internals
Initial Hessian          InHess   .... Read

Convergence Tolerances:
Energy Change            TolE     ....  5.0000e-06 Eh
Max. Gradient            TolMAXG  ....  3.0000e-04 Eh/bohr
RMS Gradient             TolRMSG  ....  1.0000e-04 Eh/bohr
Max. Displacement        TolMAXD  ....  4.0000e-03 bohr
RMS Displacement         TolRMSD  ....  2.0000e-03 bohr
Strict Convergence                ....  False
------------------------------------------------------------------------------
                        ORCA OPTIMIZATION COORDINATE SETUP
------------------------------------------------------------------------------

The optimization will be done in new redundant internal coordinates
Making redundant internal coordinates   ...  (new redundants) done
Following TS mode number                ...     0
TS-active-atoms for coordinate setup... 1 3 5 
Evaluating the initial hessian          ... (Reading Exact Hessian)...  
InHessName: NEB-TS_with_guess.appr.hess	The file <NEB-TS_with_guess.appr.hess> is opened as a .hess file
done
done
Diagonalizing the Hessian               .... done
Dimension of the hessian                .... 22
Lowest eigenvalues of the non projected Hessian:
 -0.081927303 -0.000000000 -0.000000000 -0.000000000 -0.000000000
done
Evaluating the coordinates              ...  done
Calculating the B-matrix                .... done
Calculating the G-matrix                .... done
Diagonalizing the G-matrix              .... done
The first mode is                       ....    7
The number of degrees of freedom        ....   15

    -----------------------------------------------------------------
                    Redundant Internal Coordinates


    -----------------------------------------------------------------
         Definition                    Initial Value    d2E/dq (diagonal element)
    -----------------------------------------------------------------
      1. B(C   1,C   0)                  1.4163         0.385530   
      2. B(H   2,C   1)                  1.1087         0.336200   
      3. B(H   3,C   1)                  1.5029         0.016297   
      4. B(H   3,C   0)                  1.5957         0.055693   
      5. B(H   4,C   1)                  1.1026         0.354449   
      6. B(O   5,H   3)                  1.3071         0.010742   
      7. B(O   5,C   1)                  2.2345         0.110611   
      8. B(O   5,C   0)                  1.2897         0.503405   
      9. B(H   6,C   0)                  1.1128         0.330949   
     10. A(C   1,C   0,H   6)          129.7004         0.197110   
     11. A(O   5,C   0,H   6)          119.0198         0.200793   
     12. A(C   1,C   0,O   5)          111.2443         0.094302   
     13. A(H   2,C   1,H   4)          113.6498         0.174752   
     14. A(C   0,C   1,H   4)          123.2499         0.253244   
     15. A(C   0,C   1,H   2)          112.0297         0.242266   
     16. A(C   0,O   5,H   3)           75.8258         0.041054   
     17. D(H   2,C   1,C   0,O   5)     63.5556         0.020241   
     18. D(H   4,C   1,C   0,O   5)   -154.9324         0.027793   
     19. D(H   4,C   1,C   0,H   6)     22.8411         0.025947   
     20. D(H   2,C   1,C   0,H   6)   -118.6709         0.019463   
     21. D(H   3,O   5,C   0,H   6)   -167.4246         0.030078   
     22. D(H   3,O   5,C   0,C   1)     10.6165         0.030139   
    -----------------------------------------------------------------

Number of atoms                         .... 7
Number of degrees of freedom            .... 22

         *************************************************************
         *                GEOMETRY OPTIMIZATION CYCLE   1            *
         *************************************************************


           ************************************************************
           *        Program running with 4 parallel MPI-processes     *
           *              working on a common directory               *
           ************************************************************
------------------------------------------------------------------------------
                           ORCA GTO INTEGRAL CALCULATION
                           -- RI-GTO INTEGRALS CHOSEN --
------------------------------------------------------------------------------
------------------------------------------------------------------------------
                   ___                                                        
                  /   \      - P O W E R E D   B Y -                         
                 /     \                                                     
                 |  |  |   _    _      __       _____    __    __             
                 |  |  |  | |  | |    /  \     |  _  \  |  |  /  |          
                  \  \/   | |  | |   /    \    | | | |  |  | /  /          
                 / \  \   | |__| |  /  /\  \   | |_| |  |  |/  /          
                |  |  |   |  __  | /  /__\  \  |    /   |      \           
                |  |  |   | |  | | |   __   |  |    \   |  |\   \          
                \     /   | |  | | |  |  |  |  | |\  \  |  | \   \       
                 \___/    |_|  |_| |__|  |__|  |_| \__\ |__|  \__/        
                                                                              
                      - O R C A' S   B I G   F R I E N D -                    
                                      &                                       
                       - I N T E G R A L  F E E D E R -                       
                                                                              
 v1 FN, 2020, v2 2021                                                         
------------------------------------------------------------------------------


Reading SHARK input file NEB-TS_with_guess.SHARKINP.tmp ... ok
----------------------
SHARK INTEGRAL PACKAGE
----------------------

Number of atoms                             ...      7
Number of basis functions                   ...     62
Number of shells                            ...     30
Maximum angular momentum                    ...      2
Integral batch strategy                     ... SHARK/LIBINT Hybrid
RI-J (if used) integral strategy            ... SPLIT-RIJ (Revised 2003 algorithm where possible)
Printlevel                                  ...      1
Contraction scheme used                     ... SEGMENTED contraction
Coulomb Range Separation                    ... NOT USED
Exchange Range Separation                   ... NOT USED
Finite Nucleus Model                        ... NOT USED
Auxiliary Coulomb fitting basis             ... AVAILABLE
   # of basis functions in Aux-J            ...    191
   # of shells in Aux-J                     ...     65
   Maximum angular momentum in Aux-J        ...      4
Auxiliary J/K fitting basis                 ... NOT available
Auxiliary Correlation fitting basis         ... NOT available
Auxiliary 'external' fitting basis          ... NOT available
Integral threshold                          ...     2.500000e-11
Primitive cut-off                           ...     2.500000e-12
Primitive pair pre-selection threshold      ...     2.500000e-12

Calculating pre-screening integrals         ... done (  0.0 sec) Dimension = 30
Organizing shell pair data                  ... done (  0.0 sec)
Shell pair information
Total number of shell pairs                 ...       465
Shell pairs after pre-screening             ...       464
Total number of primitive shell pairs       ...      1647
Primitive shell pairs kept                  ...      1432
          la=0 lb=0:    152 shell pairs
          la=1 lb=0:    170 shell pairs
          la=1 lb=1:     55 shell pairs
          la=2 lb=0:     51 shell pairs
          la=2 lb=1:     30 shell pairs
          la=2 lb=2:      6 shell pairs

Calculating one electron integrals          ... done (  0.0 sec)
Calculating RI/J V-Matrix + Cholesky decomp.... done (  0.0 sec)
Calculating Nuclear repulsion               ... done (  0.0 sec) ENN=     71.121396805578 Eh

SHARK setup successfully completed in   0.1 seconds

Maximum memory used throughout the entire GTOINT-calculation: 9.2 MB


           ************************************************************
           *        Program running with 4 parallel MPI-processes     *
           *              working on a common directory               *
           ************************************************************
-------------------------------------------------------------------------------
                                 ORCA SCF
-------------------------------------------------------------------------------

------------
SCF SETTINGS
------------
Hamiltonian:
 Density Functional     Method          .... DFT(GTOs)
 Exchange Functional    Exchange        .... PBE
   PBE kappa parameter   XKappa         ....  0.804000
   PBE mue parameter    XMuePBE         ....  0.219520
 Correlation Functional Correlation     .... PBE
   PBE beta parameter  CBetaPBE         ....  0.066725
 LDA part of GGA corr.  LDAOpt          .... PW91-LDA
 Gradients option       PostSCFGGA      .... off
   Density functional embedding theory  .... OFF
   NL short-range parameter             ....  6.400000
 RI-approximation to the Coulomb term is turned on
   Number of AuxJ basis functions       .... 191


General Settings:
 Integral files         IntName         .... NEB-TS_with_guess
 Hartree-Fock type      HFTyp           .... RHF
 Total Charge           Charge          ....    0
 Multiplicity           Mult            ....    1
 Number of Electrons    NEL             ....   24
 Basis Dimension        Dim             ....   62
 Nuclear Repulsion      ENuc            ....     71.1213968056 Eh

Convergence Acceleration:
 DIIS                   CNVDIIS         .... on
   Start iteration      DIISMaxIt       ....    12
   Startup error        DIISStart       ....  0.200000
   # of expansion vecs  DIISMaxEq       ....     5
   Bias factor          DIISBfac        ....   1.050
   Max. coefficient     DIISMaxC        ....  10.000
 Trust-Rad. Augm. Hess. CNVTRAH         .... auto
   Auto Start mean grad. ratio tolernc. ....  1.125000
   Auto Start start iteration           ....     1
   Auto Start num. interpolation iter.  ....    10
   Max. Number of Micro iterations      ....    16
   Max. Number of Macro iterations      .... Maxiter - #DIIS iter
   Number of Davidson start vectors     ....     2
   Converg. threshold I  (grad. norm)   ....   1.000e-05
   Converg. threshold II (energy diff.) ....   1.000e-08
   Grad. Scal. Fac. for Micro threshold ....   0.100
   Minimum threshold for Micro iter.    ....   0.010
   NR start threshold (gradient norm)   ....   0.001
   Initial trust radius                 ....   0.400
   Minimum AH scaling param. (alpha)    ....   1.000
   Maximum AH scaling param. (alpha)    .... 1000.000
   Orbital update algorithm             .... Taylor
   White noise on init. David. guess    .... on
   Maximum white noise                  ....   0.010
   Quad. conv. algorithm                .... NR
 SOSCF                  CNVSOSCF        .... on
   Start iteration      SOSCFMaxIt      ....   150
   Startup grad/error   SOSCFStart      ....  0.003300
 Level Shifting         CNVShift        .... on
   Level shift para.    LevelShift      ....    0.2500
   Turn off err/grad.   ShiftErr        ....    0.0010
 Zerner damping         CNVZerner       .... off
 Static damping         CNVDamp         .... on
   Fraction old density DampFac         ....    0.7000
   Max. Damping (<1)    DampMax         ....    0.9800
   Min. Damping (>=0)   DampMin         ....    0.0000
   Turn off err/grad.   DampErr         ....    0.1000
 Fernandez-Rico         CNVRico         .... off

SCF Procedure:
 Maximum # iterations   MaxIter         ....   125
 SCF integral mode      SCFMode         .... Direct
   Integral package                     .... SHARK and LIBINT hybrid scheme
 Reset frequency        DirectResetFreq ....    20
 Integral Threshold     Thresh          ....  2.500e-11 Eh
 Primitive CutOff       TCut            ....  2.500e-12 Eh

Convergence Tolerance:
 Convergence Check Mode ConvCheckMode   .... Total+1el-Energy
 Convergence forced     ConvForced      .... 0
 Energy Change          TolE            ....  1.000e-08 Eh
 1-El. energy change                    ....  1.000e-05 Eh
 Orbital Gradient       TolG            ....  1.000e-05
 Orbital Rotation angle TolX            ....  1.000e-05
 DIIS Error             TolErr          ....  5.000e-07


Diagonalization of the overlap matrix:
Smallest eigenvalue                        ... 4.027e-03
Time for diagonalization                   ...    0.001 sec
Threshold for overlap eigenvalues          ... 1.000e-08
Number of eigenvalues below threshold      ... 0
Time for construction of square roots      ...    0.000 sec
Total time needed                          ...    0.001 sec

---------------------
INITIAL GUESS: MOREAD
---------------------
Guess MOs are being read from file: NEB-TS_with_guess.gbw
Input Geometry matches current geometry (good)
Input basis set matches current basis set (good)
MOs were renormalized
MOs were reorthogonalized (Cholesky)
                      ------------------
                      INITIAL GUESS DONE (   0.0 sec)
                      ------------------
-------------------
DFT GRID GENERATION
-------------------

General Integration Accuracy     IntAcc      ... 4.388
Radial Grid Type                 RadialGrid  ... OptM3 with GC (2021)
Angular Grid (max. ang.)         AngularGrid ... 4 (Lebedev-302)
Angular grid pruning method      GridPruning ... 4 (adaptive)
Weight generation scheme         WeightScheme... Becke
Basis function cutoff            BFCut       ... 1.0000e-11
Integration weight cutoff        WCut        ... 1.0000e-14
Angular grids for H and He will be reduced by one unit
Partially contracted basis set               ... off
Rotationally invariant grid construction     ... off

Total number of grid points                  ...    31358
Total number of batches                      ...      494
Average number of points per batch           ...       63
Average number of grid points per atom       ...     4480
Time for grid setup =    0.186 sec

--------------
SCF ITERATIONS
--------------
ITER       Energy         Delta-E        Max-DP      RMS-DP      [F,P]     Damp
               ***  Starting incremental Fock matrix formation  ***
                      *** Initiating the SOSCF procedure ***
                      *** Re-Reading the Fockian *** 
                      *** Removing any level shift *** 
ITER      Energy       Delta-E        Grad      Rot      Max-DP    RMS-DP
  0   -153.43112739 -153.4311273898  0.000001  0.000001  0.000003  0.000000
               *** Restarting incremental Fock matrix formation ***
                 **** Energy Check signals convergence ****
              ***Rediagonalizing the Fockian in SOSCF/NRSCF***

               *****************************************************
               *                     SUCCESS                       *
               *           SCF CONVERGED AFTER   1 CYCLES          *
               *****************************************************


----------------
TOTAL SCF ENERGY
----------------

Total Energy       :         -153.43112739 Eh           -4175.07323 eV

Components:
Nuclear Repulsion  :           71.12139681 Eh            1935.31160 eV
Electronic Energy  :         -224.55252420 Eh           -6110.38483 eV
One Electron Energy:         -348.60655818 Eh           -9486.06671 eV
Two Electron Energy:          124.05403398 Eh            3375.68188 eV

Virial components:
Potential Energy   :         -305.50148317 Eh           -8313.11799 eV
Kinetic Energy     :          152.07035578 Eh            4138.04476 eV
Virial Ratio       :            2.00894830


DFT components:
N(Alpha)           :       11.999997345735 electrons
N(Beta)            :       11.999997345735 electrons
N(Total)           :       23.999994691470 electrons
E(X)               :      -19.817546263350 Eh       
E(C)               :       -0.790025739899 Eh       
E(XC)              :      -20.607572003249 Eh       
DFET-embed. en.    :        0.000000000000 Eh       

---------------
SCF CONVERGENCE
---------------

  Last Energy change         ...   -1.0743e-11  Tolerance :   1.0000e-08
  Last MAX-Density change    ...    2.4730e-06  Tolerance :   1.0000e-07
  Last RMS-Density change    ...    1.4524e-07  Tolerance :   5.0000e-09
  Last Orbital Gradient      ...    4.3934e-07  Tolerance :   1.0000e-05
  Last Orbital Rotation      ...    1.8546e-06  Tolerance :   1.0000e-05

             **** THE GBW FILE WAS UPDATED (NEB-TS_with_guess.gbw) ****
             **** DENSITY NEB-TS_with_guess.scfp WAS UPDATED ****
             **** ENERGY FILE WAS UPDATED (NEB-TS_with_guess.en.tmp) ****
             **** THE GBW FILE WAS UPDATED (NEB-TS_with_guess.gbw) ****
             **** DENSITY NEB-TS_with_guess.scfp WAS UPDATED ****
----------------
ORBITAL ENERGIES
----------------

  NO   OCC          E(Eh)            E(eV) 
   0   2.0000     -18.782435      -511.0960 
   1   2.0000      -9.992754      -271.9166 
   2   2.0000      -9.888657      -269.0840 
   3   2.0000      -0.967149       -26.3175 
   4   2.0000      -0.660558       -17.9747 
   5   2.0000      -0.537157       -14.6168 
   6   2.0000      -0.451000       -12.2723 
   7   2.0000      -0.403116       -10.9693 
   8   2.0000      -0.380990       -10.3673 
   9   2.0000      -0.339105        -9.2275 
  10   2.0000      -0.285194        -7.7605 
  11   2.0000      -0.198409        -5.3990 
  12   0.0000      -0.085928        -2.3382 
  13   0.0000       0.038481         1.0471 
  14   0.0000       0.061704         1.6791 
  15   0.0000       0.082027         2.2321 
  16   0.0000       0.115884         3.1534 
  17   0.0000       0.188246         5.1224 
  18   0.0000       0.253143         6.8884 
  19   0.0000       0.336203         9.1486 
  20   0.0000       0.375275        10.2117 
  21   0.0000       0.446269        12.1436 
  22   0.0000       0.469184        12.7672 
  23   0.0000       0.489905        13.3310 
  24   0.0000       0.523497        14.2451 
  25   0.0000       0.546475        14.8703 
  26   0.0000       0.592161        16.1135 
  27   0.0000       0.619267        16.8511 
  28   0.0000       0.655634        17.8407 
  29   0.0000       0.679685        18.4952 
  30   0.0000       0.728836        19.8326 
  31   0.0000       0.881600        23.9896 
  32   0.0000       0.925060        25.1722 
  33   0.0000       1.048288        28.5254 
  34   0.0000       1.163525        31.6611 
  35   0.0000       1.229076        33.4448 
  36   0.0000       1.327030        36.1103 
  37   0.0000       1.406563        38.2745 
  38   0.0000       1.412500        38.4361 
  39   0.0000       1.467372        39.9292 
  40   0.0000       1.503345        40.9081 
  41   0.0000       1.590928        43.2913 
  42   0.0000       1.639752        44.6199 
  43   0.0000       1.671492        45.4836 
  44   0.0000       1.724845        46.9354 
  45   0.0000       1.834163        49.9101 
  46   0.0000       1.847509        50.2733 
  47   0.0000       1.912470        52.0410 
  48   0.0000       1.984629        54.0045 
  49   0.0000       2.070137        56.3313 
  50   0.0000       2.212432        60.2033 
  51   0.0000       2.325382        63.2768 
  52   0.0000       2.410449        65.5917 
  53   0.0000       2.483358        67.5756 
  54   0.0000       2.610372        71.0318 
  55   0.0000       2.699438        73.4555 
  56   0.0000       2.771702        75.4218 
  57   0.0000       2.902178        78.9723 
  58   0.0000       2.928997        79.7021 
  59   0.0000       3.069751        83.5322 
  60   0.0000       3.302285        89.8597 
  61   0.0000       3.401547        92.5608 
-------
TIMINGS
-------

Total SCF time: 0 days 0 hours 0 min 0 sec 

Total time                  ....       0.380 sec
Sum of individual times     ....       0.308 sec  ( 81.0%)

Fock matrix formation       ....       0.112 sec  ( 29.4%)
  Split-RI-J                ....       0.021 sec  ( 18.6% of F)
  XC integration            ....       0.094 sec  ( 84.2% of F)
    Basis function eval.    ....       0.031 sec  ( 32.7% of XC)
    Density eval.           ....       0.018 sec  ( 19.4% of XC)
    XC-Functional eval.     ....       0.011 sec  ( 12.0% of XC)
    XC-Potential eval.      ....       0.018 sec  ( 18.8% of XC)
Diagonalization             ....       0.002 sec  (  0.4%)
Density matrix formation    ....       0.000 sec  (  0.0%)
Population analysis         ....       0.000 sec  (  0.0%)
Initial guess               ....       0.006 sec  (  1.6%)
Orbital Transformation      ....       0.000 sec  (  0.0%)
Orbital Orthonormalization  ....       0.001 sec  (  0.3%)
DIIS solution               ....       0.001 sec  (  0.3%)
SOSCF solution              ....       0.001 sec  (  0.3%)
Grid generation             ....       0.186 sec  ( 48.9%)

Maximum memory used throughout the entire SCF-calculation: 10.2 MB


-------------------------------------------------------------------------------
                          DFT DISPERSION CORRECTION                            
                                                                               
                              DFTD3 V3.1  Rev 1                                
                          USING Becke-Johnson damping                          
-------------------------------------------------------------------------------
The PBE functional is recognized
Active option DFTDOPT                   ...         4   

molecular C6(AA) [au] = 413.257658 


            DFT-D V3
 parameters
 s6 scaling factor         :     1.0000 
 a1 scaling factor         :     0.4289 
 s8 scaling factor         :     0.7875 
 a2 scaling factor         :     4.4407 
 ad hoc parameters k1-k3   :    16.0000     1.3333    -4.0000 

 Edisp/kcal,au: -2.124986596203  -0.003386381333 
 E6   /kcal   :  -1.534248183 
 E8   /kcal   :  -0.590738414 
 % E8         :  27.799630105 

-------------------------   ----------------
Dispersion correction           -0.003386381
-------------------------   ----------------


-------------------------   --------------------
FINAL SINGLE POINT ENERGY      -153.434513771123
-------------------------   --------------------



           ************************************************************
           *        Program running with 4 parallel MPI-processes     *
           *              working on a common directory               *
           ************************************************************
------------------------------------------------------------------------------
                         ORCA SCF GRADIENT CALCULATION
------------------------------------------------------------------------------

Gradient of the Kohn-Sham DFT energy:
Kohn-Sham wavefunction type      ... RKS
Hartree-Fock exchange scaling    ...    0.000
Number of operators              ...    1
Number of atoms                  ...    7
Basis set dimensions             ...   62
Integral neglect threshold       ... 2.5e-11
Integral primitive cutoff        ... 2.5e-12
SHARK Integral package           ... ON

Nuc. rep. gradient       (SHARK) ... done (  0.0 sec)
HCore & Overlap gradient (SHARK) ... done (  0.0 sec)
RI-J gradient            (SHARK) ... done (  0.1 sec)
Exchange-correlation gradient    ... done
Dispersion correction            ... done

------------------
CARTESIAN GRADIENT
------------------

   1   C   :   -0.000143287   -0.000034158   -0.000018362
   2   C   :    0.000189973    0.000304835    0.000204923
   3   H   :   -0.000270142   -0.000123481    0.000141536
   4   H   :   -0.000452543   -0.000590506   -0.000651699
   5   H   :    0.000181545    0.000563844    0.000165864
   6   O   :    0.000645408    0.000109048    0.000188755
   7   H   :   -0.000150955   -0.000229583   -0.000031017

Difference to translation invariance:
           :   -0.0000000000   -0.0000000000    0.0000000000

Difference to rotation invariance:
           :   -0.0000113048    0.0000375338    0.0000359235

Norm of the cartesian gradient     ...    0.0014827076
RMS gradient                       ...    0.0003235533
MAX gradient                       ...    0.0006516992

-------
TIMINGS
-------

Total SCF gradient time            ...        0.341 sec

One electron gradient       ....       0.012 sec  (  3.4%)
RI-J Coulomb gradient       ....       0.072 sec  ( 21.1%)
XC gradient                 ....       0.149 sec  ( 43.6%)

Maximum memory used throughout the entire SCFGRAD-calculation: 25.7 MB
------------------------------------------------------------------------------
                         ORCA GEOMETRY RELAXATION STEP
------------------------------------------------------------------------------

Reading the OPT-File                    .... done
Getting information on internals        .... done
Copying old internal coords+grads       .... done
Making the new internal coordinates     .... (new redundants).... done
Validating the new internal coordinates .... (new redundants).... done
Calculating the B-matrix                .... done
Calculating the G,G- and P matrices     .... done
Transforming gradient to internals      .... done
Projecting the internal gradient        .... done
Number of atoms                         ....   7
Number of internal coordinates          ....  22
Current Energy                          ....  -153.434513771 Eh
Current gradient norm                   ....     0.001482708 Eh/bohr
Maximum allowed component of the step   ....  0.300
Current trust radius                    ....  0.100
Evaluating the initial hessian          ....  (read) 
(Reading Exact Hessian)...  
InHessName: NEB-TS_with_guess.appr.hess	The file <NEB-TS_with_guess.appr.hess> is opened as a .hess file
done
done
Diagonalizing the Hessian               .... done
Dimension of the hessian                .... 22
Lowest eigenvalues of the non projected Hessian:
 -0.081927303 -0.000000000 -0.000000000 -0.000000000 -0.000000000
done
Projecting the Hessian                  .... done
Diagonalizing the Hessian               .... done
Dimension of the hessian                ....  22
Lowest eigenvalues of the Hessian:
 -0.081927303  0.022214583  0.031276909  0.042360568  0.056011899
Hessian has   1 negative eigenvalues
Taking P-RFO step
Searching for lambda that maximizes along the lowest mode
TS mode is mode number   0 with eigenvalue  -0.08192730 and components:
   1.    0.11621457
   2.    0.01778865
   3.   -0.55672385
   4.    0.06033665
   5.    0.01547921
   6.    0.66583811
   7.   -0.01417481
   8.   -0.13657282
   9.    0.01549819
  10.   -0.02651474
  11.    0.02649084
  12.   -0.00135425
  13.   -0.04251086
  14.   -0.01973346
  15.   -0.04230790
  16.   -0.13965903
  17.    0.28653104
  18.    0.11061656
  19.    0.06809853
  20.    0.24401302
  21.    0.13282320
  22.    0.09416414

Lambda that maximizes along the TS mode:       0.00000418
Searching for lambda that minimizes along all other modes
In cycle   1: lambdaN =  -0.00001434   step =   0.00001434
In cycle   2: lambdaN =  -0.00001434   step =   0.00000000
Lambda that minimizes along all other modes:  -0.00001434
The final length of the internal step   ....       0.0159
Converting the step to cartesian space:
 Initial RMS(Int)=    0.0033875675
Transforming coordinates:
 Iter   0:  RMS(Cart)=    0.0025015299 RMS(Int)=    0.0033898329
 Iter   1:  RMS(Cart)=    0.0000057997 RMS(Int)=    0.0000059305
 Iter   2:  RMS(Cart)=    0.0000000150 RMS(Int)=    0.0000000161
done
Storing new coordinates                 .... done

                                .--------------------.
          ----------------------|Geometry convergence|-------------------------
          Item                value                   Tolerance       Converged
          ---------------------------------------------------------------------
          RMS gradient        0.0003309822            0.0001000000      NO
          MAX gradient        0.0007796427            0.0003000000      NO
          RMS step            0.0033875675            0.0020000000      NO
          MAX step            0.0109372465            0.0040000000      NO
          ........................................................
          Max(Bonds)      0.0058      Max(Angles)    0.08
          Max(Dihed)        0.19      Max(Improp)    0.00
          ---------------------------------------------------------------------

The optimization has not yet converged - more geometry cycles are needed


    ---------------------------------------------------------------------------
                         Redundant Internal Coordinates
                            (Angstroem and degrees)

        Definition                    Value    dE/dq     Step     New-Value  comp.(TS mode)
    ----------------------------------------------------------------------------
     1. B(C   1,C   0)                1.4163  0.000111  0.0004    1.4168   
     2. B(H   2,C   1)                1.1087  0.000087  0.0000    1.1087   
     3. B(H   3,C   1)                1.5029 -0.000780  0.0009    1.5038          0.56
     4. B(H   3,C   0)                1.5957 -0.000188  0.0047    1.6004   
     5. B(H   4,C   1)                1.1026 -0.000463  0.0005    1.1030   
     6. B(O   5,H   3)                1.3071 -0.000183  0.0058    1.3129          0.67
     7. B(O   5,C   1)                2.2345 -0.000186  0.0009    2.2354   
     8. B(O   5,C   0)                1.2897  0.000423 -0.0005    1.2891   
     9. B(H   6,C   0)                1.1128  0.000184 -0.0002    1.1126   
    10. A(C   1,C   0,H   6)          129.70  0.000058   -0.03    129.67   
    11. A(O   5,C   0,H   6)          119.02  0.000373   -0.05    118.97   
    12. A(C   1,C   0,O   5)          111.24 -0.000431    0.07    111.32   
    13. A(H   2,C   1,H   4)          113.65  0.000104   -0.07    113.58   
    14. A(C   0,C   1,H   4)          123.25  0.000281   -0.06    123.19   
    15. A(C   0,C   1,H   2)          112.03 -0.000358   -0.02    112.01   
    16. A(C   0,O   5,H   3)           75.83 -0.000171    0.08     75.91   
    17. D(H   2,C   1,C   0,O   5)     63.56  0.000275    0.15     63.71          0.29
    18. D(H   4,C   1,C   0,O   5)   -154.93  0.000326   -0.10   -155.03   
    19. D(H   4,C   1,C   0,H   6)     22.84  0.000305   -0.17     22.67   
    20. D(H   2,C   1,C   0,H   6)   -118.67  0.000253    0.09   -118.58   
    21. D(H   3,O   5,C   0,H   6)   -167.42  0.000422   -0.13   -167.56   
    22. D(H   3,O   5,C   0,C   1)     10.62  0.000398   -0.19     10.43   
    ----------------------------------------------------------------------------

         *************************************************************
         *                GEOMETRY OPTIMIZATION CYCLE   2            *
         *************************************************************
---------------------------------
CARTESIAN COORDINATES (ANGSTROEM)
---------------------------------
  C     -0.663400    0.280242   -0.097375
  C      0.508639   -0.512514   -0.168771
  H      0.836134   -0.861068    0.831460
  H      0.745202    0.863834    0.388981
  H      0.695109   -1.243440   -0.973555
  O     -0.454845    1.366482    0.564777
  H     -1.666840    0.106463   -0.545517

----------------------------
CARTESIAN COORDINATES (A.U.)
----------------------------
  NO LB      ZA    FRAG     MASS         X           Y           Z
   0 C     6.0000    0    12.011   -1.253644    0.529581   -0.184011
   1 C     6.0000    0    12.011    0.961189   -0.968511   -0.318931
   2 H     1.0000    0     1.008    1.580064   -1.627183    1.571231
   3 H     1.0000    0     1.008    1.408228    1.632409    0.735068
   4 H     1.0000    0     1.008    1.313566   -2.349761   -1.839753
   5 O     8.0000    0    15.999   -0.859533    2.582277    1.067274
   6 H     1.0000    0     1.008   -3.149871    0.201186   -1.030878

--------------------------------
INTERNAL COORDINATES (ANGSTROEM)
--------------------------------
 C      0   0   0     0.000000000000     0.00000000     0.00000000
 C      1   0   0     1.416769581386     0.00000000     0.00000000
 H      2   1   0     1.108695103849   112.01269882     0.00000000
 H      2   1   3     1.503789436467    66.37898423   286.65999367
 H      2   1   3     1.103041709463   123.18892483   141.25664512
 O      1   2   3     1.289130245367   111.31758409    63.70974751
 H      1   2   3     1.112619885652   129.67186719   241.41795639

---------------------------
INTERNAL COORDINATES (A.U.)
---------------------------
 C      0   0   0     0.000000000000     0.00000000     0.00000000
 C      1   0   0     2.677306503690     0.00000000     0.00000000
 H      2   1   0     2.095130112294   112.01269882     0.00000000
 H      2   1   3     2.841750198006    66.37898423   286.65999367
 H      2   1   3     2.084446745177   123.18892483   141.25664512
 O      1   2   3     2.436103114699   111.31758409    63.70974751
 H      1   2   3     2.102546875037   129.67186719   241.41795639



           ************************************************************
           *        Program running with 4 parallel MPI-processes     *
           *              working on a common directory               *
           ************************************************************
------------------------------------------------------------------------------
                   ___                                                        
                  /   \      - P O W E R E D   B Y -                         
                 /     \                                                     
                 |  |  |   _    _      __       _____    __    __             
                 |  |  |  | |  | |    /  \     |  _  \  |  |  /  |          
                  \  \/   | |  | |   /    \    | | | |  |  | /  /          
                 / \  \   | |__| |  /  /\  \   | |_| |  |  |/  /          
                |  |  |   |  __  | /  /__\  \  |    /   |      \           
                |  |  |   | |  | | |   __   |  |    \   |  |\   \          
                \     /   | |  | | |  |  |  |  | |\  \  |  | \   \       
                 \___/    |_|  |_| |__|  |__|  |_| \__\ |__|  \__/        
                                                                              
                      - O R C A' S   B I G   F R I E N D -                    
                                      &                                       
                       - I N T E G R A L  F E E D E R -                       
                                                                              
 v1 FN, 2020, v2 2021                                                         
------------------------------------------------------------------------------


Reading SHARK input file NEB-TS_with_guess.SHARKINP.tmp ... ok
----------------------
SHARK INTEGRAL PACKAGE
----------------------

Number of atoms                             ...      7
Number of basis functions                   ...     62
Number of shells                            ...     30
Maximum angular momentum                    ...      2
Integral batch strategy                     ... SHARK/LIBINT Hybrid
RI-J (if used) integral strategy            ... SPLIT-RIJ (Revised 2003 algorithm where possible)
Printlevel                                  ...      1
Contraction scheme used                     ... SEGMENTED contraction
Coulomb Range Separation                    ... NOT USED
Exchange Range Separation                   ... NOT USED
Finite Nucleus Model                        ... NOT USED
Auxiliary Coulomb fitting basis             ... AVAILABLE
   # of basis functions in Aux-J            ...    191
   # of shells in Aux-J                     ...     65
   Maximum angular momentum in Aux-J        ...      4
Auxiliary J/K fitting basis                 ... NOT available
Auxiliary Correlation fitting basis         ... NOT available
Auxiliary 'external' fitting basis          ... NOT available
Integral threshold                          ...     2.500000e-11
Primitive cut-off                           ...     2.500000e-12
Primitive pair pre-selection threshold      ...     2.500000e-12

Calculating pre-screening integrals         ... done (  0.0 sec) Dimension = 30
Organizing shell pair data                  ... done (  0.0 sec)
Shell pair information
Total number of shell pairs                 ...       465
Shell pairs after pre-screening             ...       464
Total number of primitive shell pairs       ...      1647
Primitive shell pairs kept                  ...      1432
          la=0 lb=0:    152 shell pairs
          la=1 lb=0:    170 shell pairs
          la=1 lb=1:     55 shell pairs
          la=2 lb=0:     51 shell pairs
          la=2 lb=1:     30 shell pairs
          la=2 lb=2:      6 shell pairs

Calculating one electron integrals          ... done (  0.0 sec)
Calculating RI/J V-Matrix + Cholesky decomp.... done (  0.0 sec)
Calculating Nuclear repulsion               ... done (  0.0 sec) ENN=     71.097299348856 Eh

SHARK setup successfully completed in   0.1 seconds

Maximum memory used throughout the entire GTOINT-calculation: 9.2 MB


           ************************************************************
           *        Program running with 4 parallel MPI-processes     *
           *              working on a common directory               *
           ************************************************************

Diagonalization of the overlap matrix:
Smallest eigenvalue                        ... 4.028e-03
Time for diagonalization                   ...    0.001 sec
Threshold for overlap eigenvalues          ... 1.000e-08
Number of eigenvalues below threshold      ... 0
Time for construction of square roots      ...    0.000 sec
Total time needed                          ...    0.001 sec

-------------------
DFT GRID GENERATION
-------------------

General Integration Accuracy     IntAcc      ... 4.388
Radial Grid Type                 RadialGrid  ... OptM3 with GC (2021)
Angular Grid (max. ang.)         AngularGrid ... 4 (Lebedev-302)
Angular grid pruning method      GridPruning ... 4 (adaptive)
Weight generation scheme         WeightScheme... Becke
Basis function cutoff            BFCut       ... 1.0000e-11
Integration weight cutoff        WCut        ... 1.0000e-14
Angular grids for H and He will be reduced by one unit
Partially contracted basis set               ... off
Rotationally invariant grid construction     ... off

Total number of grid points                  ...    31357
Total number of batches                      ...      494
Average number of points per batch           ...       63
Average number of grid points per atom       ...     4480
Time for grid setup =    0.151 sec

--------------
SCF ITERATIONS
--------------
ITER       Energy         Delta-E        Max-DP      RMS-DP      [F,P]     Damp
               ***  Starting incremental Fock matrix formation  ***
                      *** Initiating the SOSCF procedure ***
                      *** Re-Reading the Fockian *** 
                      *** Removing any level shift *** 
ITER      Energy       Delta-E        Grad      Rot      Max-DP    RMS-DP
  0   -153.43111234 -153.4311123365  0.000560  0.000560  0.002005  0.000099
               *** Restarting incremental Fock matrix formation ***
  1   -153.43112398  -0.0000116451  0.000256  0.002269  0.001179  0.000100
  2   -153.43112513  -0.0000011523  0.000295  0.001006  0.001100  0.000056
  3   -153.43112448   0.0000006533  0.000338  0.001643  0.000937  0.000063
  4   -153.43112599  -0.0000015045  0.000108  0.000396  0.000371  0.000026
  5   -153.43112589   0.0000000988  0.000131  0.000194  0.000282  0.000016
  6   -153.43112619  -0.0000003074  0.000029  0.000078  0.000178  0.000010
  7   -153.43112620  -0.0000000019  0.000023  0.000033  0.000093  0.000005
                  ***Gradient check signals convergence***
              ***Rediagonalizing the Fockian in SOSCF/NRSCF***

               *****************************************************
               *                     SUCCESS                       *
               *           SCF CONVERGED AFTER   8 CYCLES          *
               *****************************************************

Total Energy       :         -153.43112622 Eh           -4175.07320 eV
  Last Energy change         ...   -2.0002e-08  Tolerance :   1.0000e-08
  Last MAX-Density change    ...    9.4342e-06  Tolerance :   1.0000e-07
             **** THE GBW FILE WAS UPDATED (NEB-TS_with_guess.gbw) ****
             **** DENSITY NEB-TS_with_guess.scfp WAS UPDATED ****
             **** ENERGY FILE WAS UPDATED (NEB-TS_with_guess.en.tmp) ****
             **** THE GBW FILE WAS UPDATED (NEB-TS_with_guess.gbw) ****
             **** DENSITY NEB-TS_with_guess.scfp WAS UPDATED ****
Total SCF time: 0 days 0 hours 0 min 0 sec 

Maximum memory used throughout the entire SCF-calculation: 10.2 MB


-------------------------------------------------------------------------------
                          DFT DISPERSION CORRECTION                            
                                                                               
                              DFTD3 V3.1  Rev 1                                
                          USING Becke-Johnson damping                          
-------------------------------------------------------------------------------
-------------------------   ----------------
Dispersion correction           -0.003395120
-------------------------   ----------------


-------------------------   --------------------
FINAL SINGLE POINT ENERGY      -153.434521335810
-------------------------   --------------------



           ************************************************************
           *        Program running with 4 parallel MPI-processes     *
           *              working on a common directory               *
           ************************************************************
------------------------------------------------------------------------------
                         ORCA SCF GRADIENT CALCULATION
------------------------------------------------------------------------------

Gradient of the Kohn-Sham DFT energy:
Kohn-Sham wavefunction type      ... RKS
Hartree-Fock exchange scaling    ...    0.000
Number of operators              ...    1
Number of atoms                  ...    7
Basis set dimensions             ...   62
Integral neglect threshold       ... 2.5e-11
Integral primitive cutoff        ... 2.5e-12
SHARK Integral package           ... ON

Nuc. rep. gradient       (SHARK) ... done (  0.0 sec)
HCore & Overlap gradient (SHARK) ... done (  0.0 sec)
RI-J gradient            (SHARK) ... done (  0.1 sec)
Exchange-correlation gradient    ... done
Dispersion correction            ... done

------------------
CARTESIAN GRADIENT
------------------

   1   C   :   -0.000431496   -0.000758083   -0.000338627
   2   C   :   -0.000080885   -0.000181010   -0.000143391
   3   H   :   -0.000053393    0.000073398    0.000067207
   4   H   :   -0.000226213    0.000298449    0.000178534
   5   H   :    0.000019078    0.000247398    0.000048087
   6   O   :    0.000781466    0.000412406    0.000223482
   7   H   :   -0.000008556   -0.000092558   -0.000035292

Difference to translation invariance:
           :   -0.0000000000   -0.0000000000   -0.0000000000

Difference to rotation invariance:
           :   -0.0000137200    0.0000362409    0.0000358368

Norm of the cartesian gradient     ...    0.0014229433
RMS gradient                       ...    0.0003105117
MAX gradient                       ...    0.0007814658

-------
TIMINGS
-------

Total SCF gradient time            ...        0.353 sec

One electron gradient       ....       0.007 sec  (  2.0%)
RI-J Coulomb gradient       ....       0.062 sec  ( 17.6%)
XC gradient                 ....       0.151 sec  ( 42.9%)

Maximum memory used throughout the entire SCFGRAD-calculation: 25.7 MB
------------------------------------------------------------------------------
                         ORCA GEOMETRY RELAXATION STEP
------------------------------------------------------------------------------

Reading the OPT-File                    .... done
Getting information on internals        .... done
Copying old internal coords+grads       .... done
Making the new internal coordinates     .... (new redundants).... done
Validating the new internal coordinates .... (new redundants).... done
Calculating the B-matrix                .... done
Calculating the G,G- and P matrices     .... done
Transforming gradient to internals      .... done
Projecting the internal gradient        .... done
Number of atoms                         ....   7
Number of internal coordinates          ....  22
Current Energy                          ....  -153.434521336 Eh
Current gradient norm                   ....     0.001422943 Eh/bohr
Maximum allowed component of the step   ....  0.300
Current trust radius                    ....  0.100

(DQ * DQ)^2 = 0.00000001726084     Bofill update is skipped
Updating the Hessian (Bofill)          .... 
(DQ * DQ)^2 = 0.00000006373797     Bofill update is skipped
Diagonalizing the Hessian               .... done
Dimension of the hessian                ....  22
Lowest eigenvalues of the Hessian:
 -0.081927303  0.022214583  0.031276909  0.042360568  0.056011899
Hessian has   1 negative eigenvalues
Taking P-RFO step
Searching for lambda that maximizes along the lowest mode
TS mode is mode number   0 with eigenvalue  -0.08192730 and components:
   1.    0.11621457
   2.    0.01778865
   3.   -0.55672385
   4.    0.06033665
   5.    0.01547921
   6.    0.66583811
   7.   -0.01417481
   8.   -0.13657282
   9.    0.01549819
  10.   -0.02651474
  11.    0.02649084
  12.   -0.00135425
  13.   -0.04251086
  14.   -0.01973346
  15.   -0.04230790
  16.   -0.13965903
  17.    0.28653104
  18.    0.11061656
  19.    0.06809853
  20.    0.24401302
  21.    0.13282320
  22.    0.09416414

Lambda that maximizes along the TS mode:       0.00000228
Searching for lambda that minimizes along all other modes
In cycle   1: lambdaN =  -0.00000347   step =   0.00000347
In cycle   2: lambdaN =  -0.00000347   step =   0.00000000
Lambda that minimizes along all other modes:  -0.00000347
The final length of the internal step   ....       0.0094
Converting the step to cartesian space:
 Initial RMS(Int)=    0.0020060162
Transforming coordinates:
 Iter   0:  RMS(Cart)=    0.0019340348 RMS(Int)=    0.0020061856
 Iter   1:  RMS(Cart)=    0.0000027720 RMS(Int)=    0.0000028892
 Iter   2:  RMS(Cart)=    0.0000000080 RMS(Int)=    0.0000000076
done
Storing new coordinates                 .... done
The predicted energy change is          ....    -0.000000597
Previously predicted energy change      ....    -0.000005080
Actually observed energy change         ....    -0.000007565
Ratio of predicted to observed change   ....     1.489066495
New trust radius                        ....     0.100000000

                                .--------------------.
          ----------------------|Geometry convergence|-------------------------
          Item                value                   Tolerance       Converged
          ---------------------------------------------------------------------
          Energy change      -0.0000075647            0.0000050000      NO
          RMS gradient        0.0002204082            0.0001000000      NO
          MAX gradient        0.0007184919            0.0003000000      NO
          RMS step            0.0020060162            0.0020000000      NO
          MAX step            0.0054628905            0.0040000000      NO
          ........................................................
          Max(Bonds)      0.0014      Max(Angles)    0.04
          Max(Dihed)        0.31      Max(Improp)    0.00
          ---------------------------------------------------------------------

The optimization has not yet converged - more geometry cycles are needed


    ---------------------------------------------------------------------------
                         Redundant Internal Coordinates
                            (Angstroem and degrees)

        Definition                    Value    dE/dq     Step     New-Value  comp.(TS mode)
    ----------------------------------------------------------------------------
     1. B(C   1,C   0)                1.4168 -0.000191 -0.0002    1.4166   
     2. B(H   2,C   1)                1.1087  0.000023 -0.0001    1.1086   
     3. B(H   3,C   1)                1.5038  0.000062  0.0008    1.5046          0.56
     4. B(H   3,C   0)                1.6004  0.000204 -0.0014    1.5990   
     5. B(H   4,C   1)                1.1030 -0.000196  0.0001    1.1032   
     6. B(O   5,H   3)                1.3129 -0.000456 -0.0013    1.3116          0.67
     7. B(O   5,C   1)                2.2354 -0.000009  0.0002    2.2356   
     8. B(O   5,C   0)                1.2891  0.000718 -0.0001    1.2890   
     9. B(H   6,C   0)                1.1126  0.000036 -0.0001    1.1125   
    10. A(C   1,C   0,H   6)          129.67  0.000053    0.01    129.68   
    11. A(O   5,C   0,H   6)          118.97  0.000241   -0.04    118.93   
    12. A(C   1,C   0,O   5)          111.32 -0.000298    0.04    111.35   
    13. A(H   2,C   1,H   4)          113.58  0.000120   -0.01    113.56   
    14. A(C   0,C   1,H   4)          123.19  0.000050    0.00    123.19   
    15. A(C   0,C   1,H   2)          112.01 -0.000125    0.02    112.03   
    16. A(C   0,O   5,H   3)           75.91  0.000028   -0.03     75.88   
    17. D(H   2,C   1,C   0,O   5)     63.71  0.000048   -0.31     63.40          0.29
    18. D(H   4,C   1,C   0,O   5)   -155.03  0.000154   -0.31   -155.34   
    19. D(H   4,C   1,C   0,H   6)     22.67  0.000059   -0.11     22.57   
    20. D(H   2,C   1,C   0,H   6)   -118.58 -0.000047   -0.11   -118.69   
    21. D(H   3,O   5,C   0,H   6)   -167.56  0.000001   -0.05   -167.61   
    22. D(H   3,O   5,C   0,C   1)     10.43 -0.000087    0.13     10.55   
    ----------------------------------------------------------------------------

         *************************************************************
         *                GEOMETRY OPTIMIZATION CYCLE   3            *
         *************************************************************
---------------------------------
CARTESIAN COORDINATES (ANGSTROEM)
---------------------------------
  C     -0.662627    0.280686   -0.098403
  C      0.508744   -0.512711   -0.169459
  H      0.837534   -0.859355    0.830945
  H      0.743865    0.864204    0.389607
  H      0.693926   -1.245569   -0.972950
  O     -0.455233    1.365363    0.566440
  H     -1.666209    0.107382   -0.546180

----------------------------
CARTESIAN COORDINATES (A.U.)
----------------------------
  NO LB      ZA    FRAG     MASS         X           Y           Z
   0 C     6.0000    0    12.011   -1.252183    0.530419   -0.185954
   1 C     6.0000    0    12.011    0.961386   -0.968884   -0.320231
   2 H     1.0000    0     1.008    1.582709   -1.623946    1.570259
   3 H     1.0000    0     1.008    1.405701    1.633109    0.736251
   4 H     1.0000    0     1.008    1.311331   -2.353784   -1.838609
   5 O     8.0000    0    15.999   -0.860265    2.580163    1.070416
   6 H     1.0000    0     1.008   -3.148678    0.202923   -1.032131

--------------------------------
INTERNAL COORDINATES (ANGSTROEM)
--------------------------------
 C      0   0   0     0.000000000000     0.00000000     0.00000000
 C      1   0   0     1.416557620558     0.00000000     0.00000000
 H      2   1   0     1.108635817453   112.03054967     0.00000000
 H      2   1   3     1.504570399215    66.29777966   286.86760401
 H      2   1   3     1.103164066595   123.19048814   141.26019047
 O      1   2   3     1.289012377385   111.35402174    63.39672913
 H      1   2   3     1.112526805165   129.68009526   241.30823658

---------------------------
INTERNAL COORDINATES (A.U.)
---------------------------
 C      0   0   0     0.000000000000     0.00000000     0.00000000
 C      1   0   0     2.676905955773     0.00000000     0.00000000
 H      2   1   0     2.095018077241   112.03054967     0.00000000
 H      2   1   3     2.843226003721    66.29777966   286.86760401
 H      2   1   3     2.084677966647   123.19048814   141.26019047
 O      1   2   3     2.435880376492   111.35402174    63.39672913
 H      1   2   3     2.102370978408   129.68009526   241.30823658



           ************************************************************
           *        Program running with 4 parallel MPI-processes     *
           *              working on a common directory               *
           ************************************************************
------------------------------------------------------------------------------
                   ___                                                        
                  /   \      - P O W E R E D   B Y -                         
                 /     \                                                     
                 |  |  |   _    _      __       _____    __    __             
                 |  |  |  | |  | |    /  \     |  _  \  |  |  /  |          
                  \  \/   | |  | |   /    \    | | | |  |  | /  /          
                 / \  \   | |__| |  /  /\  \   | |_| |  |  |/  /          
                |  |  |   |  __  | /  /__\  \  |    /   |      \           
                |  |  |   | |  | | |   __   |  |    \   |  |\   \          
                \     /   | |  | | |  |  |  |  | |\  \  |  | \   \       
                 \___/    |_|  |_| |__|  |__|  |_| \__\ |__|  \__/        
                                                                              
                      - O R C A' S   B I G   F R I E N D -                    
                                      &                                       
                       - I N T E G R A L  F E E D E R -                       
                                                                              
 v1 FN, 2020, v2 2021                                                         
------------------------------------------------------------------------------


Reading SHARK input file NEB-TS_with_guess.SHARKINP.tmp ... ok
----------------------
SHARK INTEGRAL PACKAGE
----------------------

Number of atoms                             ...      7
Number of basis functions                   ...     62
Number of shells                            ...     30
Maximum angular momentum                    ...      2
Integral batch strategy                     ... SHARK/LIBINT Hybrid
RI-J (if used) integral strategy            ... SPLIT-RIJ (Revised 2003 algorithm where possible)
Printlevel                                  ...      1
Contraction scheme used                     ... SEGMENTED contraction
Coulomb Range Separation                    ... NOT USED
Exchange Range Separation                   ... NOT USED
Finite Nucleus Model                        ... NOT USED
Auxiliary Coulomb fitting basis             ... AVAILABLE
   # of basis functions in Aux-J            ...    191
   # of shells in Aux-J                     ...     65
   Maximum angular momentum in Aux-J        ...      4
Auxiliary J/K fitting basis                 ... NOT available
Auxiliary Correlation fitting basis         ... NOT available
Auxiliary 'external' fitting basis          ... NOT available
Integral threshold                          ...     2.500000e-11
Primitive cut-off                           ...     2.500000e-12
Primitive pair pre-selection threshold      ...     2.500000e-12

Calculating pre-screening integrals         ... done (  0.0 sec) Dimension = 30
Organizing shell pair data                  ... done (  0.0 sec)
Shell pair information
Total number of shell pairs                 ...       465
Shell pairs after pre-screening             ...       464
Total number of primitive shell pairs       ...      1647
Primitive shell pairs kept                  ...      1432
          la=0 lb=0:    152 shell pairs
          la=1 lb=0:    170 shell pairs
          la=1 lb=1:     55 shell pairs
          la=2 lb=0:     51 shell pairs
          la=2 lb=1:     30 shell pairs
          la=2 lb=2:      6 shell pairs

Calculating one electron integrals          ... done (  0.0 sec)
Calculating RI/J V-Matrix + Cholesky decomp.... done (  0.0 sec)
Calculating Nuclear repulsion               ... done (  0.0 sec) ENN=     71.105564830618 Eh

SHARK setup successfully completed in   0.1 seconds

Maximum memory used throughout the entire GTOINT-calculation: 9.2 MB


           ************************************************************
           *        Program running with 4 parallel MPI-processes     *
           *              working on a common directory               *
           ************************************************************

Diagonalization of the overlap matrix:
Smallest eigenvalue                        ... 4.028e-03
Time for diagonalization                   ...    0.000 sec
Threshold for overlap eigenvalues          ... 1.000e-08
Number of eigenvalues below threshold      ... 0
[...]

Calculating pre-screening integrals         ... done (  0.0 sec) Dimension = 30
Organizing shell pair data                  ... done (  0.0 sec)
Shell pair information
Total number of shell pairs                 ...       465
Shell pairs after pre-screening             ...       464
Total number of primitive shell pairs       ...      1647
Primitive shell pairs kept                  ...      1432
          la=0 lb=0:    152 shell pairs
          la=1 lb=0:    170 shell pairs
          la=1 lb=1:     55 shell pairs
          la=2 lb=0:     51 shell pairs
          la=2 lb=1:     30 shell pairs
          la=2 lb=2:      6 shell pairs

Calculating one electron integrals          ... done (  0.0 sec)
Calculating RI/J V-Matrix + Cholesky decomp.... done (  0.0 sec)
Calculating Nuclear repulsion               ... done (  0.0 sec) ENN=     71.104882295956 Eh

SHARK setup successfully completed in   0.1 seconds

Maximum memory used throughout the entire GTOINT-calculation: 9.2 MB


           ************************************************************
           *        Program running with 4 parallel MPI-processes     *
           *              working on a common directory               *
           ************************************************************
-------------------------------------------------------------------------------
                                 ORCA SCF
-------------------------------------------------------------------------------

------------
SCF SETTINGS
------------
Hamiltonian:
 Density Functional     Method          .... DFT(GTOs)
 Exchange Functional    Exchange        .... PBE
   PBE kappa parameter   XKappa         ....  0.804000
   PBE mue parameter    XMuePBE         ....  0.219520
 Correlation Functional Correlation     .... PBE
   PBE beta parameter  CBetaPBE         ....  0.066725
 LDA part of GGA corr.  LDAOpt          .... PW91-LDA
 Gradients option       PostSCFGGA      .... off
   Density functional embedding theory  .... OFF
   NL short-range parameter             ....  6.400000
 RI-approximation to the Coulomb term is turned on
   Number of AuxJ basis functions       .... 191


General Settings:
 Integral files         IntName         .... NEB-TS_with_guess
 Hartree-Fock type      HFTyp           .... RHF
 Total Charge           Charge          ....    0
 Multiplicity           Mult            ....    1
 Number of Electrons    NEL             ....   24
 Basis Dimension        Dim             ....   62
 Nuclear Repulsion      ENuc            ....     71.1048822960 Eh

Convergence Acceleration:
 DIIS                   CNVDIIS         .... on
   Start iteration      DIISMaxIt       ....    12
   Startup error        DIISStart       ....  0.200000
   # of expansion vecs  DIISMaxEq       ....     5
   Bias factor          DIISBfac        ....   1.050
   Max. coefficient     DIISMaxC        ....  10.000
 Trust-Rad. Augm. Hess. CNVTRAH         .... auto
   Auto Start mean grad. ratio tolernc. ....  1.125000
   Auto Start start iteration           ....     1
   Auto Start num. interpolation iter.  ....    10
   Max. Number of Micro iterations      ....    16
   Max. Number of Macro iterations      .... Maxiter - #DIIS iter
   Number of Davidson start vectors     ....     2
   Converg. threshold I  (grad. norm)   ....   1.000e-05
   Converg. threshold II (energy diff.) ....   1.000e-08
   Grad. Scal. Fac. for Micro threshold ....   0.100
   Minimum threshold for Micro iter.    ....   0.010
   NR start threshold (gradient norm)   ....   0.001
   Initial trust radius                 ....   0.400
   Minimum AH scaling param. (alpha)    ....   1.000
   Maximum AH scaling param. (alpha)    .... 1000.000
   Orbital update algorithm             .... Taylor
   White noise on init. David. guess    .... on
   Maximum white noise                  ....   0.010
   Quad. conv. algorithm                .... NR
 SOSCF                  CNVSOSCF        .... on
   Start iteration      SOSCFMaxIt      ....   150
   Startup grad/error   SOSCFStart      ....  0.003300
 Level Shifting         CNVShift        .... on
   Level shift para.    LevelShift      ....    0.2500
   Turn off err/grad.   ShiftErr        ....    0.0010
 Zerner damping         CNVZerner       .... off
 Static damping         CNVDamp         .... on
   Fraction old density DampFac         ....    0.7000
   Max. Damping (<1)    DampMax         ....    0.9800
   Min. Damping (>=0)   DampMin         ....    0.0000
   Turn off err/grad.   DampErr         ....    0.1000
 Fernandez-Rico         CNVRico         .... off

SCF Procedure:
 Maximum # iterations   MaxIter         ....   125
 SCF integral mode      SCFMode         .... Direct
   Integral package                     .... SHARK and LIBINT hybrid scheme
 Reset frequency        DirectResetFreq ....    20
 Integral Threshold     Thresh          ....  2.500e-11 Eh
 Primitive CutOff       TCut            ....  2.500e-12 Eh

Convergence Tolerance:
 Convergence Check Mode ConvCheckMode   .... Total+1el-Energy
 Convergence forced     ConvForced      .... 0
 Energy Change          TolE            ....  1.000e-08 Eh
 1-El. energy change                    ....  1.000e-05 Eh
 Orbital Gradient       TolG            ....  1.000e-05
 Orbital Rotation angle TolX            ....  1.000e-05
 DIIS Error             TolErr          ....  5.000e-07


Diagonalization of the overlap matrix:
Smallest eigenvalue                        ... 4.028e-03
Time for diagonalization                   ...    0.000 sec
Threshold for overlap eigenvalues          ... 1.000e-08
Number of eigenvalues below threshold      ... 0
Time for construction of square roots      ...    0.000 sec
Total time needed                          ...    0.001 sec

---------------------
INITIAL GUESS: MOREAD
---------------------
Guess MOs are being read from file: NEB-TS_with_guess.gbw
Input Geometry matches current geometry (good)
Input basis set matches current basis set (good)
MOs were renormalized
MOs were reorthogonalized (Cholesky)
                      ------------------
                      INITIAL GUESS DONE (   0.0 sec)
                      ------------------
-------------------
DFT GRID GENERATION
-------------------

General Integration Accuracy     IntAcc      ... 4.388
Radial Grid Type                 RadialGrid  ... OptM3 with GC (2021)
Angular Grid (max. ang.)         AngularGrid ... 4 (Lebedev-302)
Angular grid pruning method      GridPruning ... 4 (adaptive)
Weight generation scheme         WeightScheme... Becke
Basis function cutoff            BFCut       ... 1.0000e-11
Integration weight cutoff        WCut        ... 1.0000e-14
Angular grids for H and He will be reduced by one unit
Partially contracted basis set               ... off
Rotationally invariant grid construction     ... off

Total number of grid points                  ...    31357
Total number of batches                      ...      494
Average number of points per batch           ...       63
Average number of grid points per atom       ...     4480
Time for grid setup =    0.158 sec

--------------
SCF ITERATIONS
--------------
ITER       Energy         Delta-E        Max-DP      RMS-DP      [F,P]     Damp
               ***  Starting incremental Fock matrix formation  ***
                      *** Initiating the SOSCF procedure ***
                      *** Re-Reading the Fockian *** 
                      *** Removing any level shift *** 
ITER      Energy       Delta-E        Grad      Rot      Max-DP    RMS-DP
  0   -153.43112430 -153.4311243014  0.000309  0.000309  0.000902  0.000043
               *** Restarting incremental Fock matrix formation ***
  1   -153.43112716  -0.0000028592  0.000093  0.000602  0.000450  0.000032
  2   -153.43112745  -0.0000002866  0.000059  0.000228  0.000292  0.000015
  3   -153.43112728   0.0000001659  0.000120  0.000304  0.000244  0.000014
  4   -153.43112749  -0.0000002050  0.000010  0.000062  0.000072  0.000004
  5   -153.43112749   0.0000000008  0.000009  0.000029  0.000035  0.000002
  6   -153.43112749  -0.0000000039  0.000003  0.000009  0.000019  0.000001
  7   -153.43112749   0.0000000005  0.000004  0.000007  0.000010  0.000001
                  ***Gradient check signals convergence***
              ***Rediagonalizing the Fockian in SOSCF/NRSCF***

               *****************************************************
               *                     SUCCESS                       *
               *           SCF CONVERGED AFTER   8 CYCLES          *
               *****************************************************


----------------
TOTAL SCF ENERGY
----------------

Total Energy       :         -153.43112749 Eh           -4175.07324 eV

Components:
Nuclear Repulsion  :           71.10488230 Eh            1934.86221 eV
Electronic Energy  :         -224.53600979 Eh           -6109.93545 eV
One Electron Energy:         -348.57546009 Eh           -9485.22049 eV
Two Electron Energy:          124.03945031 Eh            3375.28504 eV

Virial components:
Potential Energy   :         -305.49852171 Eh           -8313.03740 eV
Kinetic Energy     :          152.06739422 Eh            4137.96417 eV
Virial Ratio       :            2.00896795


DFT components:
N(Alpha)           :       11.999997382914 electrons
N(Beta)            :       11.999997382914 electrons
N(Total)           :       23.999994765828 electrons
E(X)               :      -19.816605513120 Eh       
E(C)               :       -0.789928352752 Eh       
E(XC)              :      -20.606533865873 Eh       
DFET-embed. en.    :        0.000000000000 Eh       

---------------
SCF CONVERGENCE
---------------

  Last Energy change         ...   -7.6636e-10  Tolerance :   1.0000e-08
  Last MAX-Density change    ...    1.8843e-06  Tolerance :   1.0000e-07
  Last RMS-Density change    ...    1.2611e-07  Tolerance :   5.0000e-09
  Last Orbital Gradient      ...    3.7423e-07  Tolerance :   1.0000e-05
  Last Orbital Rotation      ...    7.5548e-07  Tolerance :   1.0000e-05

             **** THE GBW FILE WAS UPDATED (NEB-TS_with_guess.gbw) ****
             **** DENSITY NEB-TS_with_guess.scfp WAS UPDATED ****
             **** ENERGY FILE WAS UPDATED (NEB-TS_with_guess.en.tmp) ****
             **** THE GBW FILE WAS UPDATED (NEB-TS_with_guess.gbw) ****
             **** DENSITY NEB-TS_with_guess.scfp WAS UPDATED ****
----------------
ORBITAL ENERGIES
----------------

  NO   OCC          E(Eh)            E(eV) 
   0   2.0000     -18.782330      -511.0932 
   1   2.0000      -9.992597      -271.9124 
   2   2.0000      -9.889058      -269.0950 
   3   2.0000      -0.966858       -26.3096 
   4   2.0000      -0.660630       -17.9767 
   5   2.0000      -0.536939       -14.6109 
   6   2.0000      -0.450948       -12.2709 
   7   2.0000      -0.402959       -10.9651 
   8   2.0000      -0.380790       -10.3618 
   9   2.0000      -0.339252        -9.2315 
  10   2.0000      -0.284763        -7.7488 
  11   2.0000      -0.198783        -5.4092 
  12   0.0000      -0.085763        -2.3337 
  13   0.0000       0.036884         1.0037 
  14   0.0000       0.061727         1.6797 
  15   0.0000       0.081814         2.2263 
  16   0.0000       0.115743         3.1495 
  17   0.0000       0.188670         5.1340 
  18   0.0000       0.253218         6.8904 
  19   0.0000       0.336198         9.1484 
  20   0.0000       0.375050        10.2056 
  21   0.0000       0.446186        12.1414 
  22   0.0000       0.469438        12.7741 
  23   0.0000       0.490950        13.3594 
  24   0.0000       0.523430        14.2432 
  25   0.0000       0.546409        14.8685 
  26   0.0000       0.592117        16.1123 
  27   0.0000       0.618599        16.8329 
  28   0.0000       0.655575        17.8391 
  29   0.0000       0.680356        18.5134 
  30   0.0000       0.729024        19.8377 
  31   0.0000       0.881562        23.9885 
  32   0.0000       0.925052        25.1719 
  33   0.0000       1.048337        28.5267 
  34   0.0000       1.163476        31.6598 
  35   0.0000       1.228453        33.4279 
  36   0.0000       1.326450        36.0945 
  37   0.0000       1.406561        38.2745 
  38   0.0000       1.411325        38.4041 
  39   0.0000       1.467379        39.9294 
  40   0.0000       1.503766        40.9195 
  41   0.0000       1.591278        43.3009 
  42   0.0000       1.639783        44.6208 
  43   0.0000       1.669304        45.4241 
  44   0.0000       1.724756        46.9330 
  45   0.0000       1.833416        49.8898 
  46   0.0000       1.847383        50.2699 
  47   0.0000       1.912670        52.0464 
  48   0.0000       1.983225        53.9663 
  49   0.0000       2.068571        56.2887 
  50   0.0000       2.211793        60.1859 
  51   0.0000       2.325475        63.2794 
  52   0.0000       2.409063        65.5539 
  53   0.0000       2.482179        67.5435 
  54   0.0000       2.609872        71.0182 
  55   0.0000       2.697984        73.4159 
  56   0.0000       2.770850        75.3987 
  57   0.0000       2.903120        78.9979 
  58   0.0000       2.930068        79.7312 
  59   0.0000       3.065093        83.4054 
  60   0.0000       3.302331        89.8610 
  61   0.0000       3.400527        92.5331 
-------
TIMINGS
-------

Total SCF time: 0 days 0 hours 0 min 0 sec 

Total time                  ....       0.998 sec
Sum of individual times     ....       0.921 sec  ( 92.3%)

Fock matrix formation       ....       0.719 sec  ( 72.1%)
  Split-RI-J                ....       0.193 sec  ( 26.9% of F)
  XC integration            ....       0.516 sec  ( 71.7% of F)
    Basis function eval.    ....       0.152 sec  ( 29.5% of XC)
    Density eval.           ....       0.091 sec  ( 17.7% of XC)
    XC-Functional eval.     ....       0.060 sec  ( 11.7% of XC)
    XC-Potential eval.      ....       0.086 sec  ( 16.7% of XC)
Diagonalization             ....       0.002 sec  (  0.2%)
Density matrix formation    ....       0.001 sec  (  0.1%)
Population analysis         ....       0.000 sec  (  0.0%)
Initial guess               ....       0.001 sec  (  0.1%)
Orbital Transformation      ....       0.000 sec  (  0.0%)
Orbital Orthonormalization  ....       0.000 sec  (  0.0%)
DIIS solution               ....       0.001 sec  (  0.1%)
SOSCF solution              ....       0.038 sec  (  3.9%)
Grid generation             ....       0.158 sec  ( 15.8%)

Maximum memory used throughout the entire SCF-calculation: 10.2 MB


-------------------------------------------------------------------------------
                          DFT DISPERSION CORRECTION                            
                                                                               
                              DFTD3 V3.1  Rev 1                                
                          USING Becke-Johnson damping                          
-------------------------------------------------------------------------------
The PBE functional is recognized
Active option DFTDOPT                   ...         4   

molecular C6(AA) [au] = 414.372904 


            DFT-D V3
 parameters
 s6 scaling factor         :     1.0000 
 a1 scaling factor         :     0.4289 
 s8 scaling factor         :     0.7875 
 a2 scaling factor         :     4.4407 
 ad hoc parameters k1-k3   :    16.0000     1.3333    -4.0000 

 Edisp/kcal,au: -2.130672101797  -0.003395441762 
 E6   /kcal   :  -1.538366804 
 E8   /kcal   :  -0.592305298 
 % E8         :  27.798988768 

-------------------------   ----------------
Dispersion correction           -0.003395442
-------------------------   ----------------


-------------------------   --------------------
FINAL SINGLE POINT ENERGY      -153.434522931481
-------------------------   --------------------

                                *** OPTIMIZATION RUN DONE ***


                    ***********************HURRAY************************
                    ***        THE TS OPTIMIZATION HAS CONVERGED      ***
                    *****************************************************



---------------------------------------------------------------
                      PATH SUMMARY FOR NEB-TS             
---------------------------------------------------------------
All forces in Eh/Bohr. Global forces for TS.

Image     E(Eh)   dE(kcal/mol)  max(|Fp|)  RMS(Fp)
  0    -153.53120     0.00       0.00505   0.00313
  1    -153.49759    21.09       0.00443   0.00230
  2    -153.45403    48.43       0.00177   0.00090
  3    -153.43451    60.67       0.00083   0.00030 <= CI
 TS    -153.43452    60.66       0.00033   0.00012 <= TS
  4    -153.46182    43.53       0.00423   0.00143
  5    -153.49327    23.80       0.00173   0.00076
  6    -153.51375    10.95       0.01251   0.00448
----------
STATISTICS
----------

For the individual parts of the NEB, NEB-CI or NEB-TS run:

Number of iterations:
     NEB                               ... 12  70.6%
     TS optimization                   ... 5  29.4%
Number of SCF / gradient calculations:
     NEB                               ... 87  94.6%
     TS optimization                   ... 5  5.4%

----------
 TIMINGS
----------

For the individual parts of the NEB, NEB-CI or NEB-TS run:

Total                                  ...      226.809 sec
NEB                                    ...      212.105 sec  93.5%
TS Optimization                        ...       14.704 sec  6.5%


                            ***************************************
                            *     ORCA property calculations      *
                            ***************************************

                                    ---------------------
                                    Active property flags
                                    ---------------------
   (+) Dipole Moment


------------------------------------------------------------------------------
                       ORCA ELECTRIC PROPERTIES CALCULATION
------------------------------------------------------------------------------

Dipole Moment Calculation                       ... on
Quadrupole Moment Calculation                   ... off
Polarizability Calculation                      ... off
GBWName                                         ... NEB-TS_with_guess.gbw
Electron density                                ... NEB-TS_with_guess.scfp
The origin for moment calculation is the CENTER OF MASS  = (-0.365868,  0.768530  0.238194)

-------------
DIPOLE MOMENT
-------------
                                X             Y             Z
Electronic contribution:     -1.45373       2.08226       0.58757
Nuclear contribution   :      1.29483      -2.57536      -0.74725
                        -----------------------------------------
Total Dipole Moment    :     -0.15890      -0.49311      -0.15968
                        -----------------------------------------
Magnitude (a.u.)       :      0.54212
Magnitude (Debye)      :      1.37797



--------------------
Rotational spectrum 
--------------------
 
Rotational constants in cm-1:     1.614096     0.402521     0.335005 
Rotational constants in MHz : 48389.376610 12067.277058 10043.187167 

 Dipole components along the rotational axes: 
x,y,z [a.u.] :    -0.394812    -0.335486     0.159600 
x,y,z [Debye]:    -1.003532    -0.852737     0.405670 

 

Timings for individual modules:

Sum of individual times         ...      231.522 sec (=   3.859 min)
GTO integral calculation        ...        4.132 sec (=   0.069 min)   1.8 %
SCF iterations                  ...        9.774 sec (=   0.163 min)   4.2 %
SCF Gradient evaluation         ...        5.406 sec (=   0.090 min)   2.3 %
Geometry relaxation             ...        0.105 sec (=   0.002 min)   0.0 %
NEB Iterations                  ...      212.105 sec (=   3.535 min)  91.6 %
                             ****ORCA TERMINATED NORMALLY****
TOTAL RUN TIME: 0 days 0 hours 3 minutes 48 seconds 109 msec
