
                                 *****************
                                 * O   R   C   A *
                                 *****************

                                            #,                                       
                                            ###                                      
                                            ####                                     
                                            #####                                    
                                            ######                                   
                                           ########,                                 
                                     ,,################,,,,,                         
                               ,,#################################,,                 
                          ,,##########################################,,             
                       ,#########################################, ''#####,          
                    ,#############################################,,   '####,        
                  ,##################################################,,,,####,       
                ,###########''''           ''''###############################       
              ,#####''   ,,,,##########,,,,          '''####'''          '####       
            ,##' ,,,,###########################,,,                        '##       
           ' ,,###''''                  '''############,,,                           
         ,,##''                                '''############,,,,        ,,,,,,###''
      ,#''                                            '''#######################'''  
     '                                                          ''''####''''         
             ,#######,   #######,   ,#######,      ##                                
            ,#'     '#,  ##    ##  ,#'     '#,    #''#        ######   ,####,        
            ##       ##  ##   ,#'  ##            #'  '#       #        #'  '#        
            ##       ##  #######   ##           ,######,      #####,   #    #        
            '#,     ,#'  ##    ##  '#,     ,#' ,#      #,         ##   #,  ,#        
             '#######'   ##     ##  '#######'  #'      '#     #####' # '####'        



                  #######################################################
                  #                        -***-                        #
                  #          Department of theory and spectroscopy      #
                  #    Directorship and core code : Frank Neese         #
                  #        Max Planck Institute fuer Kohlenforschung    #
                  #                Kaiser Wilhelm Platz 1               #
                  #                 D-45470 Muelheim/Ruhr               #
                  #                      Germany                        #
                  #                                                     #
                  #                  All rights reserved                #
                  #                        -***-                        #
                  #######################################################


                         Program Version 5.0.4 -  RELEASE  -


 With contributions from (in alphabetic order):
   Daniel Aravena         : Magnetic Suceptibility
   Michael Atanasov       : Ab Initio Ligand Field Theory (pilot matlab implementation)
   Alexander A. Auer      : GIAO ZORA, VPT2 properties, NMR spectrum
   Ute Becker             : Parallelization
   Giovanni Bistoni       : ED, misc. LED, open-shell LED, HFLD
   Martin Brehm           : Molecular dynamics
   Dmytro Bykov           : SCF Hessian
   Vijay G. Chilkuri      : MRCI spin determinant printing, contributions to CSF-ICE
   Dipayan Datta          : RHF DLPNO-CCSD density
   Achintya Kumar Dutta   : EOM-CC, STEOM-CC
   Dmitry Ganyushin       : Spin-Orbit,Spin-Spin,Magnetic field MRCI
   Miquel Garcia          : C-PCM and meta-GGA Hessian, CC/C-PCM, Gaussian charge scheme
   Yang Guo               : DLPNO-NEVPT2, F12-NEVPT2, CIM, IAO-localization
   Andreas Hansen         : Spin unrestricted coupled pair/coupled cluster methods
   Benjamin Helmich-Paris : MC-RPA, TRAH-SCF, COSX integrals
   Lee Huntington         : MR-EOM, pCC
   Robert Izsak           : Overlap fitted RIJCOSX, COSX-SCS-MP3, EOM
   Marcus Kettner         : VPT2
   Christian Kollmar      : KDIIS, OOCD, Brueckner-CCSD(T), CCSD density, CASPT2, CASPT2-K
   Simone Kossmann        : Meta GGA functionals, TD-DFT gradient, OOMP2, MP2 Hessian
   Martin Krupicka        : Initial AUTO-CI
   Lucas Lang             : DCDCAS
   Marvin Lechner         : AUTO-CI (C++ implementation), FIC-MRCC
   Dagmar Lenk            : GEPOL surface, SMD
   Dimitrios Liakos       : Extrapolation schemes; Compound Job, initial MDCI parallelization
   Dimitrios Manganas     : Further ROCIS development; embedding schemes
   Dimitrios Pantazis     : SARC Basis sets
   Anastasios Papadopoulos: AUTO-CI, single reference methods and gradients
   Taras Petrenko         : DFT Hessian,TD-DFT gradient, ASA, ECA, R-Raman, ABS, FL, XAS/XES, NRVS
   Peter Pinski           : DLPNO-MP2, DLPNO-MP2 Gradient
   Christoph Reimann      : Effective Core Potentials
   Marius Retegan         : Local ZFS, SOC
   Christoph Riplinger    : Optimizer, TS searches, QM/MM, DLPNO-CCSD(T), (RO)-DLPNO pert. Triples
   Tobias Risthaus        : Range-separated hybrids, TD-DFT gradient, RPA, STAB
   Michael Roemelt        : Original ROCIS implementation
   Masaaki Saitow         : Open-shell DLPNO-CCSD energy and density
   Barbara Sandhoefer     : DKH picture change effects
   Avijit Sen             : IP-ROCIS
   Kantharuban Sivalingam : CASSCF convergence, NEVPT2, FIC-MRCI
   Bernardo de Souza      : ESD, SOC TD-DFT
   Georgi Stoychev        : AutoAux, RI-MP2 NMR, DLPNO-MP2 response
   Willem Van den Heuvel  : Paramagnetic NMR
   Boris Wezisla          : Elementary symmetry handling
   Frank Wennmohs         : Technical directorship


 We gratefully acknowledge several colleagues who have allowed us to
 interface, adapt or use parts of their codes:
   Stefan Grimme, W. Hujo, H. Kruse, P. Pracht,  : VdW corrections, initial TS optimization,
                  C. Bannwarth, S. Ehlert          DFT functionals, gCP, sTDA/sTD-DF
   Ed Valeev, F. Pavosevic, A. Kumar             : LibInt (2-el integral package), F12 methods
   Garnet Chan, S. Sharma, J. Yang, R. Olivares  : DMRG
   Ulf Ekstrom                                   : XCFun DFT Library
   Mihaly Kallay                                 : mrcc  (arbitrary order and MRCC methods)
   Jiri Pittner, Ondrej Demel                    : Mk-CCSD
   Frank Weinhold                                : gennbo (NPA and NBO analysis)
   Christopher J. Cramer and Donald G. Truhlar   : smd solvation model
   Lars Goerigk                                  : TD-DFT with DH, B97 family of functionals
   V. Asgeirsson, H. Jonsson                     : NEB implementation
   FAccTs GmbH                                   : IRC, NEB, NEB-TS, DLPNO-Multilevel, CI-OPT
                                                   MM, QMMM, 2- and 3-layer-ONIOM, Crystal-QMMM,
                                                   LR-CPCM, SF, NACMEs, symmetry and pop. for TD-DFT,
                                                   nearIR, NL-DFT gradient (VV10), updates on ESD,
                                                   ML-optimized integration grids
   S Lehtola, MJT Oliveira, MAL Marques          : LibXC Library
   Liviu Ungur et al                             : ANISO software


 Your calculation uses the libint2 library for the computation of 2-el integrals
 For citations please refer to: http://libint.valeyev.net

 Your ORCA version has been built with support for libXC version: 5.1.0
 For citations please refer to: https://tddft.org/programs/libxc/

 This ORCA versions uses:
   CBLAS   interface :  Fast vector & matrix operations
   LAPACKE interface :  Fast linear algebra routines
   SCALAPACK package :  Parallel linear algebra routines
   Shared memory     :  Shared parallel matrices
   BLAS/LAPACK       :  OpenBLAS 0.3.15  USE64BITINT DYNAMIC_ARCH NO_AFFINITY SkylakeX SINGLE_THREADED
        Core in use  :  SkylakeX
   Copyright (c) 2011-2014, The OpenBLAS Project




***************************************
The coordinates will be read from file: reactant.xyz
***************************************


Your calculation utilizes the atom-pairwise dispersion correction
with the Becke-Johnson damping scheme (D3BJ)
Cite in your paper:
S.Grimme, S.Ehrlich, L.Goerigk, J Comput Chem, (2011), 32, 1456–1465 
S.Grimme, J.Antony, S.Ehrlich and H.Krieg, J.Chem.Phys., 132, (2010), 154104 
   

Your calculation utilizes a Nudged-Elastic-Band implementation
 by V.Asgeirsson, C. Riplinger & H. Jonsson
Please cite in your paper:
 V. Asgeirsson et al., in prep. (2019)
   

================================================================================

----- Orbital basis set information -----
Your calculation utilizes the basis: def2-SVP
   F. Weigend and R. Ahlrichs, Phys. Chem. Chem. Phys. 7, 3297 (2005).

----- AuxJ basis set information -----
Your calculation utilizes the auxiliary basis: def2/J
   F. Weigend, Phys. Chem. Chem. Phys. 8, 1057 (2006).

================================================================================
                                        WARNINGS
                       Please study these warnings very carefully!
================================================================================


WARNING: Geometry Optimization
  ===> : Switching off AutoStart
         For restart on a previous wavefunction, please use MOREAD

INFO   : the flag for use of the SHARK integral package has been found!

================================================================================
                                       INPUT FILE
================================================================================
NAME = NEB-TS.inp
|  1> ! PBE def2-SVP D3BJ NEB-TS
|  2> 
|  3> %pal
|  4>     nprocs 4
|  5> end
|  6> 
|  7> %maxcore 750
|  8> 
|  9> %neb
| 10>     neb_end_xyzfile "product.xyz"
| 11>     NImages 5
| 12> end
| 13> 
| 14> *xyzfile 0 1 reactant.xyz
| 15> 
| 16> 
| 17>                          ****END OF INPUT****
================================================================================


--------------------------------------------------------------------------------
                        Nudged Elastic Band Calculation
--------------------------------------------------------------------------------

Number of images (incl. end points)     ....  7
Number of intermediate images           ....  5
Number of optimized images              ....  5
Optimization of end points before NEB   ....  NO
Use existing gbw files for MO input     ....  NO
Number of atoms                         ....  7
Number of (active) degrees of freedom   ....  21
Constrained atoms                       ....  None

-----------------------------------------
  REACTANT (ANGSTROEM)
-----------------------------------------
C     -4.283709     1.625615    -0.002642 
C     -2.974068     0.889792     0.008208 
H     -3.024283     0.063020     0.735501 
H     -2.144976     1.563000     0.255117 
H     -2.807253     0.423646    -0.976643 
O     -4.416673     2.808623     0.230366 
H     -5.177487     0.992025    -0.249898 

-----------------------------------------
  PRODUCT (ANGSTROEM)
-----------------------------------------
C     -4.278583     1.484518     0.033611 
C     -3.070429     0.911286     0.052179 
H     -2.193945     1.412820     0.468350 
H     -3.806505     3.140723     0.865082 
H     -2.937113    -0.087695    -0.356607 
O     -4.609602     2.722461     0.502765 
H     -5.158632     0.988607    -0.380772 



----------------------
NEB settings
----------------------
Method type                             ....  climbing image
Threshold for climbing image            ....  2.00e-02 Eh/Bohr 
Free endpoints                          ....  off 
Tangent type                            ....  improved 
Number of intermediate images           ....  5 
Number of images free to move           ....  5 
Spring type for image distribution      ....  distance between adjacent images 
Spring constant                         ....  energy weighted (0.0100 -to- 0.1000) Eh/Bohr^2 
Spring force perp. to the path          ....  none 
Generation of initial path              ....  image dependent pair potential 
Initial path via TS guess               ....  off 

Minimization of RMSD: Rotation          ....  always 
Minimization of RMSD: Translation type  ....  centroid 
Center fixed to origin                  ....  true 
Remove external force                   ....  true 

Reparametrization of the path           ....  off 
Convergence thresholds:
Convergence monitored for               ....  all images
Scaling factor                          ....  10.00

Convergence parameters for regular images:
               Max(|Fp|)                ....  2.00e-02 Eh/Bohr
               RMS(Fp)                  ....  1.00e-02 Eh/Bohr

Convergence parameters for climbing image:
               Max(|F|)                 ....  2.00e-03 Eh/Bohr
               RMS(F)                   ....  1.00e-03 Eh/Bohr
Optimization method:
Method                                  ....  L-BFGS
Max. iterations                         ....  500 
Step size                               ....  1.00 
Maximum allowed step size               ....  0.10 Bohr

LBFGS parameters: 
               Memory                   ....  20 
               Initial step size        ....  0.0010 
               Estimate curvature       ....  YES 
               Reset on maxmove         ....  YES 
               Reparam. on reset        ....  NO 
Generation of  the initial path:
Minimize RMSD between reactant and product configurations     .... done
       RMSD before minimization         ....  1.2396 Bohr
       RMSD after minimization          ....  0.9888 Bohr
Performing linear interpolation         ....  done
Interpolation using                     ....  IDPP (Image Dependent Pair Potential)
IDPP-Settings:
       Remove global transl. and rot.   ...   true
       Convergence tolerance            ....  0.0100 1/Ang.^3
       Max. numer of iterations         ....    7000
       Spring constant                  ....  1.0000 1/Ang.^4
       Time step                        ....  0.0100 fs
       Max. movement per iteration      ....  0.0500 Ang.
       Full print                       ....  false 
idpp initial path generation successfully converged in 87 iterations
Displacement along initial path:              4.6915 Bohr
Writing initial trajectory to file      ....  NEB-TS_initial_path_trj.xyz



----------------------
NEB OPTIMIZATION      
----------------------

Following output files will be written:
Energy profile during opt. written to    ....  NEB-TS.interp
Optimization log-file                    ....  NEB-TS.NEB.log
Current trajectory will be written to    ....  NEB-TS_MEP_trj.xyz
       and to allxyz file                ....  NEB-TS_MEP.allxyz
       and individual images to xyz file ....  NEB-TS_im{NIm}.xyz
Trajectory history will be written to    ....  NEB-TS_MEP_ALL_trj.xyz
Converged CI will be written to          ....  NEB-TS_NEB-CI_converged.xyz
Converged TS will be written to          ....  NEB-TS_NEB-TS_converged.xyz

Single point energy and gradient calculation of reactant and
product configurations (have to be performed only once)
Properties of fixed NEB end points:
               Reactant:
                         E               ....   -153.531199 Eh
                         RMS(F)          ....      0.003161 Eh/Bohr
                         MAX(|F|)        ....      0.004949 Eh/Bohr
               Product:
                         E               ....   -153.513746 Eh
                         RMS(F)          ....      0.004488 Eh/Bohr
                         MAX(|F|)        ....      0.012590 Eh/Bohr



Starting iterations:

Optim.  Iteration  HEI  E(HEI)-E(0)  max(|Fp|)   RMS(Fp)    dS
Switch-on CI threshold               0.020000 
   LBFGS     0      3    0.132884    0.077186   0.019692  4.6915       
   LBFGS     1      3    0.128124    0.066818   0.016736  4.7117       
   LBFGS     2      3    0.125319    0.058717   0.014239  4.8160       
   LBFGS     3      3    0.121777    0.037648   0.010961  4.8084       
   LBFGS     4      3    0.119752    0.046195   0.010844  4.8341       
   LBFGS     5      3    0.115212    0.048761   0.010571  4.9071       
   LBFGS     6      3    0.111773    0.048547   0.010162  4.9371       
   LBFGS     7      3    0.110017    0.025304   0.006902  4.9492       
   LBFGS     8      3    0.104224    0.022563   0.006449  5.0414       
   LBFGS     9      3    0.102926    0.028677   0.006846  5.0640       
   LBFGS    10      3    0.102093    0.020736   0.005523  5.0874       
   LBFGS    11      3    0.099494    0.018672   0.005229  5.2196       

Image  3 will be converted to a climbing image in the next iteration (max(|Fp|) < 0.0200) 

Optim.  Iteration  CI   E(CI)-E(0)   max(|Fp|)   RMS(Fp)    dS     max(|FCI|)   RMS(FCI)
Convergence thresholds               0.020000   0.010000            0.002000    0.001000 
   LBFGS    12      3    0.099000    0.015463   0.004585  5.2420    0.010494    0.004496       
   LBFGS    13      3    0.098766    0.009399   0.002716  5.2497    0.006377    0.003260       
   LBFGS    14      3    0.098381    0.013700   0.003132  5.2776    0.005411    0.002426       
   LBFGS    15      3    0.097553    0.020925   0.004413  5.3703    0.007060    0.003417       
   LBFGS    16      3    0.097020    0.023973   0.004462  5.5125    0.007238    0.003560       
   LBFGS    17      3    0.096986    0.026648   0.005077  5.6422    0.005283    0.002128       
   LBFGS    18      3    0.096926    0.003654   0.000994  5.5763    0.003260    0.001177       
   LBFGS    19      3    0.096907    0.001948   0.000711  5.5597    0.002328    0.000965       
   LBFGS    20      3    0.096847    0.004927   0.001030  5.5522    0.002309    0.000971       
   LBFGS    21      3    0.096721    0.009033   0.001719  5.5539    0.003045    0.001216       
   LBFGS    22      3    0.096664    0.008212   0.001378  5.5652    0.003142    0.001213       
   LBFGS    23      3    0.096679    0.002790   0.000655  5.5794    0.002147    0.000756       
   LBFGS    24      3    0.096690    0.001882   0.000611  5.5896    0.000950    0.000433       

                                .--------------------.
          ----------------------| CI-NEB convergence |-------------------------
          Item                value                   Tolerance       Converged
          ---------------------------------------------------------------------
          RMS(Fp)             0.0006112388            0.0100000000      YES
          MAX(|Fp|)           0.0018823625            0.0200000000      YES
          RMS(FCI)            0.0004327847            0.0010000000      YES
          MAX(|FCI|)          0.0009496137            0.0020000000      YES
          ---------------------------------------------------------------------

The elastic band and climbing image have converged successfully to a MEP in 24 iterations!


                    *********************H U R R A Y*********************
                    ***        THE NEB OPTIMIZATION HAS CONVERGED     ***
                    *****************************************************



---------------------------------------------------------------
                         PATH SUMMARY              
---------------------------------------------------------------
All forces in Eh/Bohr.

Image Dist.(Ang.)    E(Eh)   dE(kcal/mol)  max(|Fp|)  RMS(Fp)
  0     0.000    -153.53120      0.00       0.00506   0.00314
  1     0.901    -153.50053     19.24       0.00188   0.00084
  2     1.210    -153.45622     47.05       0.00137   0.00063
  3     1.454    -153.43451     60.67       0.00101   0.00043 <= CI
  4     1.730    -153.45941     45.05       0.00153   0.00087
  5     2.126    -153.49279     24.10       0.00133   0.00062
  6     2.958    -153.51375     10.95       0.01257   0.00447

Straight line distance between images along the path:
        D( 0- 1) =   0.9010 Ang.
        D( 1- 2) =   0.3094 Ang.
        D( 2- 3) =   0.2438 Ang.
        D( 3- 4) =   0.2754 Ang.
        D( 4- 5) =   0.3966 Ang.
        D( 5- 6) =   0.8316 Ang.

---------------------------------------------------------------
               INFORMATION ABOUT SADDLE POINT     
---------------------------------------------------------------

Climbing image                            ....  3 
Energy                                    ....  -153.43450910 Eh
Max. abs. force                           ....  9.4961e-04 Eh/Bohr

-----------------------------------------
  SADDLE POINT (ANGSTROEM)
-----------------------------------------
C     -0.662304     0.279419    -0.096123 
C      0.509510    -0.514922    -0.167814 
H      0.838170    -0.868414     0.831414 
H      0.744142     0.870816     0.387513 
H      0.695131    -1.243395    -0.975029 
O     -0.457055     1.368291     0.562091 
H     -1.667593     0.108205    -0.542052 

-----------------------------------------
  FORCES (Eh/Bohr)
-----------------------------------------
C     -0.000216     0.000044    -0.000263 
C     -0.000225     0.000950     0.000770 
H     -0.000077     0.000573    -0.000589 
H     -0.000349    -0.000403     0.000190 
H     -0.000232    -0.000310    -0.000043 
O      0.000779    -0.000538     0.000063 
H      0.000321    -0.000315    -0.000127 

-----------------------------------------
  UNIT TANGENT
-----------------------------------------
C      0.109571    -0.154289    -0.128351 
C     -0.174213    -0.291809    -0.102514 
H      0.155158     0.141414    -0.064037 
H     -0.405916     0.532288     0.347218 
H     -0.091003    -0.207268    -0.051880 
O      0.361145    -0.093896     0.045812 
H      0.045258     0.073559    -0.046248 
 => Unit tangent is an approximation to the TS mode at the saddle point

Next a TS optimization is performed on the CI from the NEB run.

         *************************************************************
         *                       TS OPTIMIZATION                     *
         *************************************************************


Following output files will be written:
Converged TS will be written to          ....  NEB-TS_NEB-TS_converged.xyz
                                         ....  NEB-TS.xyz
Current trajectory will be written to    ....  NEB-TS_trj.xyz
Initial Hessian will be stored in        ....  NEB-TS.appr.hess
Geometry optimization settings:
Update method            Update   .... Bofill
Choice of coordinates    CoordSys .... Z-matrix Internals
Initial Hessian          InHess   .... Read

Convergence Tolerances:
Energy Change            TolE     ....  5.0000e-06 Eh
Max. Gradient            TolMAXG  ....  3.0000e-04 Eh/bohr
RMS Gradient             TolRMSG  ....  1.0000e-04 Eh/bohr
Max. Displacement        TolMAXD  ....  4.0000e-03 bohr
RMS Displacement         TolRMSD  ....  2.0000e-03 bohr
Strict Convergence                ....  False
------------------------------------------------------------------------------
                        ORCA OPTIMIZATION COORDINATE SETUP
------------------------------------------------------------------------------

The optimization will be done in new redundant internal coordinates
Making redundant internal coordinates   ...  (new redundants) done
Following TS mode number                ...     0
TS-active-atoms for coordinate setup... 1 3 5 
Evaluating the initial hessian          ... (Reading Exact Hessian)...  
InHessName: NEB-TS.appr.hess	The file <NEB-TS.appr.hess> is opened as a .hess file
done
done
Diagonalizing the Hessian               .... done
Dimension of the hessian                .... 22
Lowest eigenvalues of the non projected Hessian:
 -0.081643248 -0.000000000 -0.000000000  0.000000000  0.000000000
done
Evaluating the coordinates              ...  done
Calculating the B-matrix                .... done
Calculating the G-matrix                .... done
Diagonalizing the G-matrix              .... done
The first mode is                       ....    7
The number of degrees of freedom        ....   15

    -----------------------------------------------------------------
                    Redundant Internal Coordinates


    -----------------------------------------------------------------
         Definition                    Initial Value    d2E/dq (diagonal element)
    -----------------------------------------------------------------
      1. B(C   1,C   0)                  1.4175         0.381395   
      2. B(H   2,C   1)                  1.1097         0.334947   
      3. B(H   3,C   1)                  1.5112         0.017771   
      4. B(H   3,C   0)                  1.6005         0.055786   
      5. B(H   4,C   1)                  1.1031         0.353503   
      6. B(O   5,H   3)                  1.3118         0.007268   
      7. B(O   5,C   1)                  2.2391         0.110646   
      8. B(O   5,C   0)                  1.2888         0.501780   
      9. B(H   6,C   0)                  1.1130         0.330776   
     10. A(C   1,C   0,H   6)          129.8077         0.197497   
     11. A(O   5,C   0,H   6)          118.5830         0.200750   
     12. A(C   1,C   0,O   5)          111.5695         0.094351   
     13. A(H   2,C   1,H   4)          113.4992         0.174054   
     14. A(C   0,C   1,H   4)          123.1077         0.252804   
     15. A(C   0,C   1,H   2)          112.1980         0.242118   
     16. A(C   0,O   5,H   3)           75.9635         0.040838   
     17. D(H   2,C   1,C   0,O   5)     64.0484         0.020519   
     18. D(H   4,C   1,C   0,O   5)   -154.6718         0.027599   
     19. D(H   4,C   1,C   0,H   6)     22.9619         0.025852   
     20. D(H   2,C   1,C   0,H   6)   -118.3179         0.019869   
     21. D(H   3,O   5,C   0,H   6)   -167.4179         0.030272   
     22. D(H   3,O   5,C   0,C   1)     10.5121         0.030370   
    -----------------------------------------------------------------

Number of atoms                         .... 7
Number of degrees of freedom            .... 22

         *************************************************************
         *                GEOMETRY OPTIMIZATION CYCLE   1            *
         *************************************************************


           ************************************************************
           *        Program running with 4 parallel MPI-processes     *
           *              working on a common directory               *
           ************************************************************
------------------------------------------------------------------------------
                           ORCA GTO INTEGRAL CALCULATION
                           -- RI-GTO INTEGRALS CHOSEN --
------------------------------------------------------------------------------
------------------------------------------------------------------------------
                   ___                                                        
                  /   \      - P O W E R E D   B Y -                         
                 /     \                                                     
                 |  |  |   _    _      __       _____    __    __             
                 |  |  |  | |  | |    /  \     |  _  \  |  |  /  |          
                  \  \/   | |  | |   /    \    | | | |  |  | /  /          
                 / \  \   | |__| |  /  /\  \   | |_| |  |  |/  /          
                |  |  |   |  __  | /  /__\  \  |    /   |      \           
                |  |  |   | |  | | |   __   |  |    \   |  |\   \          
                \     /   | |  | | |  |  |  |  | |\  \  |  | \   \       
                 \___/    |_|  |_| |__|  |__|  |_| \__\ |__|  \__/        
                                                                              
                      - O R C A' S   B I G   F R I E N D -                    
                                      &                                       
                       - I N T E G R A L  F E E D E R -                       
                                                                              
 v1 FN, 2020, v2 2021                                                         
------------------------------------------------------------------------------


Reading SHARK input file NEB-TS.SHARKINP.tmp ... ok
----------------------
SHARK INTEGRAL PACKAGE
----------------------

Number of atoms                             ...      7
Number of basis functions                   ...     62
Number of shells                            ...     30
Maximum angular momentum                    ...      2
Integral batch strategy                     ... SHARK/LIBINT Hybrid
RI-J (if used) integral strategy            ... SPLIT-RIJ (Revised 2003 algorithm where possible)
Printlevel                                  ...      1
Contraction scheme used                     ... SEGMENTED contraction
Coulomb Range Separation                    ... NOT USED
Exchange Range Separation                   ... NOT USED
Finite Nucleus Model                        ... NOT USED
Auxiliary Coulomb fitting basis             ... AVAILABLE
   # of basis functions in Aux-J            ...    191
   # of shells in Aux-J                     ...     65
   Maximum angular momentum in Aux-J        ...      4
Auxiliary J/K fitting basis                 ... NOT available
Auxiliary Correlation fitting basis         ... NOT available
Auxiliary 'external' fitting basis          ... NOT available
Integral threshold                          ...     2.500000e-11
Primitive cut-off                           ...     2.500000e-12
Primitive pair pre-selection threshold      ...     2.500000e-12

Calculating pre-screening integrals         ... done (  0.0 sec) Dimension = 30
Organizing shell pair data                  ... done (  0.0 sec)
Shell pair information
Total number of shell pairs                 ...       465
Shell pairs after pre-screening             ...       464
Total number of primitive shell pairs       ...      1647
Primitive shell pairs kept                  ...      1432
          la=0 lb=0:    152 shell pairs
          la=1 lb=0:    170 shell pairs
          la=1 lb=1:     55 shell pairs
          la=2 lb=0:     51 shell pairs
          la=2 lb=1:     30 shell pairs
          la=2 lb=2:      6 shell pairs

Calculating one electron integrals          ... done (  0.0 sec)
Calculating RI/J V-Matrix + Cholesky decomp.... done (  0.0 sec)
Calculating Nuclear repulsion               ... done (  0.0 sec) ENN=     71.055227106895 Eh

SHARK setup successfully completed in   0.1 seconds

Maximum memory used throughout the entire GTOINT-calculation: 9.2 MB


           ************************************************************
           *        Program running with 4 parallel MPI-processes     *
           *              working on a common directory               *
           ************************************************************
-------------------------------------------------------------------------------
                                 ORCA SCF
-------------------------------------------------------------------------------

------------
SCF SETTINGS
------------
Hamiltonian:
 Density Functional     Method          .... DFT(GTOs)
 Exchange Functional    Exchange        .... PBE
   PBE kappa parameter   XKappa         ....  0.804000
   PBE mue parameter    XMuePBE         ....  0.219520
 Correlation Functional Correlation     .... PBE
   PBE beta parameter  CBetaPBE         ....  0.066725
 LDA part of GGA corr.  LDAOpt          .... PW91-LDA
 Gradients option       PostSCFGGA      .... off
   Density functional embedding theory  .... OFF
   NL short-range parameter             ....  6.400000
 RI-approximation to the Coulomb term is turned on
   Number of AuxJ basis functions       .... 191


General Settings:
 Integral files         IntName         .... NEB-TS
 Hartree-Fock type      HFTyp           .... RHF
 Total Charge           Charge          ....    0
 Multiplicity           Mult            ....    1
 Number of Electrons    NEL             ....   24
 Basis Dimension        Dim             ....   62
 Nuclear Repulsion      ENuc            ....     71.0552271069 Eh

Convergence Acceleration:
 DIIS                   CNVDIIS         .... on
   Start iteration      DIISMaxIt       ....    12
   Startup error        DIISStart       ....  0.200000
   # of expansion vecs  DIISMaxEq       ....     5
   Bias factor          DIISBfac        ....   1.050
   Max. coefficient     DIISMaxC        ....  10.000
 Trust-Rad. Augm. Hess. CNVTRAH         .... auto
   Auto Start mean grad. ratio tolernc. ....  1.125000
   Auto Start start iteration           ....     1
   Auto Start num. interpolation iter.  ....    10
   Max. Number of Micro iterations      ....    16
   Max. Number of Macro iterations      .... Maxiter - #DIIS iter
   Number of Davidson start vectors     ....     2
   Converg. threshold I  (grad. norm)   ....   1.000e-05
   Converg. threshold II (energy diff.) ....   1.000e-08
   Grad. Scal. Fac. for Micro threshold ....   0.100
   Minimum threshold for Micro iter.    ....   0.010
   NR start threshold (gradient norm)   ....   0.001
   Initial trust radius                 ....   0.400
   Minimum AH scaling param. (alpha)    ....   1.000
   Maximum AH scaling param. (alpha)    .... 1000.000
   Orbital update algorithm             .... Taylor
   White noise on init. David. guess    .... on
   Maximum white noise                  ....   0.010
   Quad. conv. algorithm                .... NR
 SOSCF                  CNVSOSCF        .... on
   Start iteration      SOSCFMaxIt      ....   150
   Startup grad/error   SOSCFStart      ....  0.003300
 Level Shifting         CNVShift        .... on
   Level shift para.    LevelShift      ....    0.2500
   Turn off err/grad.   ShiftErr        ....    0.0010
 Zerner damping         CNVZerner       .... off
 Static damping         CNVDamp         .... on
   Fraction old density DampFac         ....    0.7000
   Max. Damping (<1)    DampMax         ....    0.9800
   Min. Damping (>=0)   DampMin         ....    0.0000
   Turn off err/grad.   DampErr         ....    0.1000
 Fernandez-Rico         CNVRico         .... off

SCF Procedure:
 Maximum # iterations   MaxIter         ....   125
 SCF integral mode      SCFMode         .... Direct
   Integral package                     .... SHARK and LIBINT hybrid scheme
 Reset frequency        DirectResetFreq ....    20
 Integral Threshold     Thresh          ....  2.500e-11 Eh
 Primitive CutOff       TCut            ....  2.500e-12 Eh

Convergence Tolerance:
 Convergence Check Mode ConvCheckMode   .... Total+1el-Energy
 Convergence forced     ConvForced      .... 0
 Energy Change          TolE            ....  1.000e-08 Eh
 1-El. energy change                    ....  1.000e-05 Eh
 Orbital Gradient       TolG            ....  1.000e-05
 Orbital Rotation angle TolX            ....  1.000e-05
 DIIS Error             TolErr          ....  5.000e-07


Diagonalization of the overlap matrix:
Smallest eigenvalue                        ... 4.047e-03
Time for diagonalization                   ...    0.001 sec
Threshold for overlap eigenvalues          ... 1.000e-08
Number of eigenvalues below threshold      ... 0
Time for construction of square roots      ...    0.000 sec
Total time needed                          ...    0.001 sec

---------------------
INITIAL GUESS: MOREAD
---------------------
Guess MOs are being read from file: NEB-TS.gbw
Input Geometry matches current geometry (good)
Input basis set matches current basis set (good)
MOs were renormalized
MOs were reorthogonalized (Cholesky)
                      ------------------
                      INITIAL GUESS DONE (   0.0 sec)
                      ------------------
-------------------
DFT GRID GENERATION
-------------------

General Integration Accuracy     IntAcc      ... 4.388
Radial Grid Type                 RadialGrid  ... OptM3 with GC (2021)
Angular Grid (max. ang.)         AngularGrid ... 4 (Lebedev-302)
Angular grid pruning method      GridPruning ... 4 (adaptive)
Weight generation scheme         WeightScheme... Becke
Basis function cutoff            BFCut       ... 1.0000e-11
Integration weight cutoff        WCut        ... 1.0000e-14
Angular grids for H and He will be reduced by one unit
Partially contracted basis set               ... off
Rotationally invariant grid construction     ... off

Total number of grid points                  ...    31357
Total number of batches                      ...      494
Average number of points per batch           ...       63
Average number of grid points per atom       ...     4480
Time for grid setup =    0.184 sec

--------------
SCF ITERATIONS
--------------
ITER       Energy         Delta-E        Max-DP      RMS-DP      [F,P]     Damp
               ***  Starting incremental Fock matrix formation  ***
                      *** Initiating the SOSCF procedure ***
                      *** Re-Reading the Fockian *** 
                      *** Removing any level shift *** 
ITER      Energy       Delta-E        Grad      Rot      Max-DP    RMS-DP
  0   -153.43110792 -153.4311079156  0.000001  0.000001  0.000002  0.000000
               *** Restarting incremental Fock matrix formation ***
                  ***Gradient check signals convergence***
              ***Rediagonalizing the Fockian in SOSCF/NRSCF***

               *****************************************************
               *                     SUCCESS                       *
               *           SCF CONVERGED AFTER   1 CYCLES          *
               *****************************************************


----------------
TOTAL SCF ENERGY
----------------

Total Energy       :         -153.43110792 Eh           -4175.07270 eV

Components:
Nuclear Repulsion  :           71.05522711 Eh            1933.51103 eV
Electronic Energy  :         -224.48633502 Eh           -6108.58373 eV
One Electron Energy:         -348.47553371 Eh           -9482.50135 eV
Two Electron Energy:          123.98919869 Eh            3373.91762 eV

Virial components:
Potential Energy   :         -305.49248053 Eh           -8312.87301 eV
Kinetic Energy     :          152.06137261 Eh            4137.80031 eV
Virial Ratio       :            2.00900778


DFT components:
N(Alpha)           :       11.999996801547 electrons
N(Beta)            :       11.999996801547 electrons
N(Total)           :       23.999993603094 electrons
E(X)               :      -19.814822789146 Eh       
E(C)               :       -0.789757425321 Eh       
E(XC)              :      -20.604580214466 Eh       
DFET-embed. en.    :        0.000000000000 Eh       

---------------
SCF CONVERGENCE
---------------

  Last Energy change         ...   -1.0004e-11  Tolerance :   1.0000e-08
  Last MAX-Density change    ...    1.2730e-06  Tolerance :   1.0000e-07
  Last RMS-Density change    ...    7.8832e-08  Tolerance :   5.0000e-09
  Last Orbital Gradient      ...    2.7851e-07  Tolerance :   1.0000e-05
  Last Orbital Rotation      ...    7.0337e-07  Tolerance :   1.0000e-05

             **** THE GBW FILE WAS UPDATED (NEB-TS.gbw) ****
             **** DENSITY NEB-TS.scfp WAS UPDATED ****
             **** ENERGY FILE WAS UPDATED (NEB-TS.en.tmp) ****
             **** THE GBW FILE WAS UPDATED (NEB-TS.gbw) ****
             **** DENSITY NEB-TS.scfp WAS UPDATED ****
----------------
ORBITAL ENERGIES
----------------

  NO   OCC          E(Eh)            E(eV) 
   0   2.0000     -18.782996      -511.1113 
   1   2.0000      -9.992927      -271.9214 
   2   2.0000      -9.889088      -269.0958 
   3   2.0000      -0.967102       -26.3162 
   4   2.0000      -0.660197       -17.9649 
   5   2.0000      -0.536744       -14.6055 
   6   2.0000      -0.450988       -12.2720 
   7   2.0000      -0.403089       -10.9686 
   8   2.0000      -0.380951       -10.3662 
   9   2.0000      -0.338891        -9.2217 
  10   2.0000      -0.285380        -7.7656 
  11   2.0000      -0.198504        -5.4016 
  12   0.0000      -0.086235        -2.3466 
  13   0.0000       0.036426         0.9912 
  14   0.0000       0.061746         1.6802 
  15   0.0000       0.081361         2.2139 
  16   0.0000       0.115959         3.1554 
  17   0.0000       0.189066         5.1447 
  18   0.0000       0.253109         6.8874 
  19   0.0000       0.336687         9.1617 
  20   0.0000       0.374999        10.2042 
  21   0.0000       0.445835        12.1318 
  22   0.0000       0.469712        12.7815 
  23   0.0000       0.490904        13.3582 
  24   0.0000       0.523174        14.2363 
  25   0.0000       0.546340        14.8667 
  26   0.0000       0.591593        16.0981 
  27   0.0000       0.618455        16.8290 
  28   0.0000       0.655445        17.8356 
  29   0.0000       0.677540        18.4368 
  30   0.0000       0.728859        19.8333 
  31   0.0000       0.881372        23.9834 
  32   0.0000       0.923864        25.1396 
  33   0.0000       1.048115        28.5207 
  34   0.0000       1.162950        31.6455 
  35   0.0000       1.229954        33.4687 
  36   0.0000       1.326876        36.1061 
  37   0.0000       1.406030        38.2600 
  38   0.0000       1.412145        38.4264 
  39   0.0000       1.468694        39.9652 
  40   0.0000       1.501435        40.8561 
  41   0.0000       1.590455        43.2785 
  42   0.0000       1.637213        44.5508 
  43   0.0000       1.670216        45.4489 
  44   0.0000       1.724629        46.9295 
  45   0.0000       1.831508        49.8379 
  46   0.0000       1.846410        50.2434 
  47   0.0000       1.912584        52.0441 
  48   0.0000       1.982922        53.9580 
  49   0.0000       2.068891        56.2974 
  50   0.0000       2.210771        60.1581 
  51   0.0000       2.323883        63.2361 
  52   0.0000       2.406490        65.4839 
  53   0.0000       2.480805        67.5061 
  54   0.0000       2.608729        70.9871 
  55   0.0000       2.696775        73.3830 
  56   0.0000       2.769301        75.3565 
  57   0.0000       2.903989        79.0216 
  58   0.0000       2.929933        79.7275 
  59   0.0000       3.063939        83.3740 
  60   0.0000       3.298929        89.7684 
  61   0.0000       3.400393        92.5294 
-------
TIMINGS
-------

Total SCF time: 0 days 0 hours 0 min 0 sec 

Total time                  ....       0.523 sec
Sum of individual times     ....       0.422 sec  ( 80.6%)

Fock matrix formation       ....       0.210 sec  ( 40.1%)
  Split-RI-J                ....       0.059 sec  ( 28.3% of F)
  XC integration            ....       0.153 sec  ( 73.0% of F)
    Basis function eval.    ....       0.054 sec  ( 35.2% of XC)
    Density eval.           ....       0.029 sec  ( 18.8% of XC)
    XC-Functional eval.     ....       0.021 sec  ( 13.7% of XC)
    XC-Potential eval.      ....       0.028 sec  ( 18.0% of XC)
Diagonalization             ....       0.017 sec  (  3.3%)
Density matrix formation    ....       0.000 sec  (  0.1%)
Population analysis         ....       0.000 sec  (  0.0%)
Initial guess               ....       0.002 sec  (  0.3%)
Orbital Transformation      ....       0.000 sec  (  0.0%)
Orbital Orthonormalization  ....       0.000 sec  (  0.1%)
DIIS solution               ....       0.006 sec  (  1.1%)
SOSCF solution              ....       0.003 sec  (  0.6%)
Grid generation             ....       0.184 sec  ( 35.1%)

Maximum memory used throughout the entire SCF-calculation: 10.2 MB


-------------------------------------------------------------------------------
                          DFT DISPERSION CORRECTION                            
                                                                               
                              DFTD3 V3.1  Rev 1                                
                          USING Becke-Johnson damping                          
-------------------------------------------------------------------------------
The PBE functional is recognized
Active option DFTDOPT                   ...         4   

molecular C6(AA) [au] = 415.282819 


            DFT-D V3
 parameters
 s6 scaling factor         :     1.0000 
 a1 scaling factor         :     0.4289 
 s8 scaling factor         :     0.7875 
 a2 scaling factor         :     4.4407 
 ad hoc parameters k1-k3   :    16.0000     1.3333    -4.0000 

 Edisp/kcal,au: -2.134278117219  -0.003401188313 
 E6   /kcal   :  -1.540893652 
 E8   /kcal   :  -0.593384465 
 % E8         :  27.802583927 

-------------------------   ----------------
Dispersion correction           -0.003401188
-------------------------   ----------------


-------------------------   --------------------
FINAL SINGLE POINT ENERGY      -153.434509103882
-------------------------   --------------------



           ************************************************************
           *        Program running with 4 parallel MPI-processes     *
           *              working on a common directory               *
           ************************************************************
------------------------------------------------------------------------------
                         ORCA SCF GRADIENT CALCULATION
------------------------------------------------------------------------------

Gradient of the Kohn-Sham DFT energy:
Kohn-Sham wavefunction type      ... RKS
Hartree-Fock exchange scaling    ...    0.000
Number of operators              ...    1
Number of atoms                  ...    7
Basis set dimensions             ...   62
Integral neglect threshold       ... 2.5e-11
Integral primitive cutoff        ... 2.5e-12
SHARK Integral package           ... ON

Nuc. rep. gradient       (SHARK) ... done (  0.0 sec)
HCore & Overlap gradient (SHARK) ... done (  0.0 sec)
RI-J gradient            (SHARK) ... done (  0.1 sec)
Exchange-correlation gradient    ... done
Dispersion correction            ... done

------------------
CARTESIAN GRADIENT
------------------

   1   C   :    0.000216747   -0.000044183    0.000263109
   2   C   :    0.000224558   -0.000949073   -0.000769696
   3   H   :    0.000077450   -0.000572534    0.000588990
   4   H   :    0.000348739    0.000402546   -0.000189637
   5   H   :    0.000232234    0.000310283    0.000043316
   6   O   :   -0.000778185    0.000538072   -0.000062998
   7   H   :   -0.000321543    0.000314888    0.000126915

Difference to translation invariance:
           :   -0.0000000000    0.0000000000   -0.0000000000

Difference to rotation invariance:
           :   -0.0000109979    0.0000341491    0.0000321175

Norm of the cartesian gradient     ...    0.0019828974
RMS gradient                       ...    0.0004327037
MAX gradient                       ...    0.0009490734

-------
TIMINGS
-------

Total SCF gradient time            ...        0.606 sec

One electron gradient       ....       0.010 sec  (  1.7%)
RI-J Coulomb gradient       ....       0.096 sec  ( 15.9%)
XC gradient                 ....       0.360 sec  ( 59.5%)

Maximum memory used throughout the entire SCFGRAD-calculation: 25.7 MB
------------------------------------------------------------------------------
                         ORCA GEOMETRY RELAXATION STEP
------------------------------------------------------------------------------

Reading the OPT-File                    .... done
Getting information on internals        .... done
Copying old internal coords+grads       .... done
Making the new internal coordinates     .... (new redundants).... done
Validating the new internal coordinates .... (new redundants).... done
Calculating the B-matrix                .... done
Calculating the G,G- and P matrices     .... done
Transforming gradient to internals      .... done
Projecting the internal gradient        .... done
Number of atoms                         ....   7
Number of internal coordinates          ....  22
Current Energy                          ....  -153.434509104 Eh
Current gradient norm                   ....     0.001982897 Eh/bohr
Maximum allowed component of the step   ....  0.300
Current trust radius                    ....  0.100
Evaluating the initial hessian          ....  (read) 
(Reading Exact Hessian)...  
InHessName: NEB-TS.appr.hess	The file <NEB-TS.appr.hess> is opened as a .hess file
done
done
Diagonalizing the Hessian               .... done
Dimension of the hessian                .... 22
Lowest eigenvalues of the non projected Hessian:
 -0.081643248 -0.000000000 -0.000000000  0.000000000  0.000000000
done
Projecting the Hessian                  .... done
Diagonalizing the Hessian               .... done
Dimension of the hessian                ....  22
Lowest eigenvalues of the Hessian:
 -0.081643248  0.022048211  0.031142248  0.041904555  0.056025875
Hessian has   1 negative eigenvalues
Taking P-RFO step
Searching for lambda that maximizes along the lowest mode
TS mode is mode number   0 with eigenvalue  -0.08164325 and components:
   1.    0.11968572
   2.    0.01631475
   3.   -0.55591818
   4.    0.06101263
   5.    0.01462501
   6.    0.67681696
   7.   -0.00648517
   8.   -0.13879000
   9.    0.01374682
  10.   -0.02501661
  11.    0.02033299
  12.    0.00321349
  13.   -0.05003496
  14.   -0.01077348
  15.   -0.03700294
  16.   -0.14322368
  17.    0.27347392
  18.    0.10569183
  19.    0.06257527
  20.    0.23035737
  21.    0.13258576
  22.    0.09372035

Lambda that maximizes along the TS mode:       0.00000178
Searching for lambda that minimizes along all other modes
In cycle   1: lambdaN =  -0.00004233   step =   0.00004233
In cycle   2: lambdaN =  -0.00004233   step =   0.00000000
Lambda that minimizes along all other modes:  -0.00004233
The final length of the internal step   ....       0.0387
Converting the step to cartesian space:
 Initial RMS(Int)=    0.0082491317
Transforming coordinates:
 Iter   0:  RMS(Cart)=    0.0088710418 RMS(Int)=    0.0082297020
 Iter   1:  RMS(Cart)=    0.0000448793 RMS(Int)=    0.0000540416
 Iter   2:  RMS(Cart)=    0.0000004136 RMS(Int)=    0.0000003363
 Iter   3:  RMS(Cart)=    0.0000000045 RMS(Int)=    0.0000000054
done
Storing new coordinates                 .... done

                                .--------------------.
          ----------------------|Geometry convergence|-------------------------
          Item                value                   Tolerance       Converged
          ---------------------------------------------------------------------
          RMS gradient        0.0003537461            0.0001000000      NO
          MAX gradient        0.0007365363            0.0003000000      NO
          RMS step            0.0082491317            0.0020000000      NO
          MAX step            0.0244370297            0.0040000000      NO
          ........................................................
          Max(Bonds)      0.0129      Max(Angles)    0.24
          Max(Dihed)        0.75      Max(Improp)    0.00
          ---------------------------------------------------------------------

The optimization has not yet converged - more geometry cycles are needed


    ---------------------------------------------------------------------------
                         Redundant Internal Coordinates
                            (Angstroem and degrees)

        Definition                    Value    dE/dq     Step     New-Value  comp.(TS mode)
    ----------------------------------------------------------------------------
     1. B(C   1,C   0)                1.4175  0.000507 -0.0010    1.4165   
     2. B(H   2,C   1)                1.1097  0.000737 -0.0011    1.1086   
     3. B(H   3,C   1)                1.5112  0.000414 -0.0129    1.4983          0.56
     4. B(H   3,C   0)                1.6005 -0.000026 -0.0042    1.5964   
     5. B(H   4,C   1)                1.1031 -0.000198  0.0003    1.1033   
     6. B(O   5,H   3)                1.3118  0.000314  0.0007    1.3125          0.68
     7. B(O   5,C   1)                2.2391  0.000535 -0.0043    2.2348   
     8. B(O   5,C   0)                1.2888 -0.000227 -0.0006    1.2882   
     9. B(H   6,C   0)                1.1130  0.000191 -0.0003    1.1127   
    10. A(C   1,C   0,H   6)          129.81  0.000356    0.04    129.84   
    11. A(O   5,C   0,H   6)          118.58 -0.000562    0.19    118.77   
    12. A(C   1,C   0,O   5)          111.57  0.000202   -0.22    111.35   
    13. A(H   2,C   1,H   4)          113.50 -0.000168    0.02    113.52   
    14. A(C   0,C   1,H   4)          123.11  0.000179   -0.03    123.07   
    15. A(C   0,C   1,H   2)          112.20  0.000032   -0.02    112.18   
    16. A(C   0,O   5,H   3)           75.96 -0.000044   -0.24     75.73   
    17. D(H   2,C   1,C   0,O   5)     64.05  0.000391   -0.71     63.34          0.27
    18. D(H   4,C   1,C   0,O   5)   -154.67  0.000386   -0.75   -155.42   
    19. D(H   4,C   1,C   0,H   6)     22.96  0.000230   -0.64     22.32   
    20. D(H   2,C   1,C   0,H   6)   -118.32  0.000236   -0.60   -118.92   
    21. D(H   3,O   5,C   0,H   6)   -167.42  0.000448   -0.55   -167.97   
    22. D(H   3,O   5,C   0,C   1)     10.51  0.000334   -0.46     10.05   
    ----------------------------------------------------------------------------

         *************************************************************
         *                GEOMETRY OPTIMIZATION CYCLE   2            *
         *************************************************************
---------------------------------
CARTESIAN COORDINATES (ANGSTROEM)
---------------------------------
  C     -0.662951    0.280566   -0.098299
  C      0.509372   -0.511294   -0.169995
  H      0.843421   -0.855860    0.829306
  H      0.742080    0.857578    0.392896
  H      0.691521   -1.246062   -0.972681
  O     -0.455787    1.366201    0.563421
  H     -1.667657    0.108870   -0.544648

----------------------------
CARTESIAN COORDINATES (A.U.)
----------------------------
  NO LB      ZA    FRAG     MASS         X           Y           Z
   0 C     6.0000    0    12.011   -1.252795    0.530194   -0.185758
   1 C     6.0000    0    12.011    0.962574   -0.966206   -0.321245
   2 H     1.0000    0     1.008    1.593835   -1.617340    1.567161
   3 H     1.0000    0     1.008    1.402327    1.620588    0.742466
   4 H     1.0000    0     1.008    1.306786   -2.354717   -1.838101
   5 O     8.0000    0    15.999   -0.861312    2.581747    1.064712
   6 H     1.0000    0     1.008   -3.151416    0.205734   -1.029236

--------------------------------
INTERNAL COORDINATES (ANGSTROEM)
--------------------------------
 C      0   0   0     0.000000000000     0.00000000     0.00000000
 C      1   0   0     1.416518368550     0.00000000     0.00000000
 H      2   1   0     1.108565519039   112.17989387     0.00000000
 H      2   1   3     1.498269196132    66.34595947   287.35093227
 H      2   1   3     1.103343701520   123.07440144   141.24120721
 O      1   2   3     1.288174542242   111.34782402    63.33936446
 H      1   2   3     1.112718858885   129.84481208   241.07766671

---------------------------
INTERNAL COORDINATES (A.U.)
---------------------------
 C      0   0   0     0.000000000000     0.00000000     0.00000000
 C      1   0   0     2.676831780229     0.00000000     0.00000000
 H      2   1   0     2.094885232491   112.17989387     0.00000000
 H      2   1   3     2.831318455580    66.34595947   287.35093227
 H      2   1   3     2.085017427461   123.07440144   141.24120721
 O      1   2   3     2.434297097527   111.34782402    63.33936446
 H      1   2   3     2.102733907342   129.84481208   241.07766671



           ************************************************************
           *        Program running with 4 parallel MPI-processes     *
           *              working on a common directory               *
           ************************************************************
------------------------------------------------------------------------------
                   ___                                                        
                  /   \      - P O W E R E D   B Y -                         
                 /     \                                                     
                 |  |  |   _    _      __       _____    __    __             
                 |  |  |  | |  | |    /  \     |  _  \  |  |  /  |          
                  \  \/   | |  | |   /    \    | | | |  |  | /  /          
                 / \  \   | |__| |  /  /\  \   | |_| |  |  |/  /          
                |  |  |   |  __  | /  /__\  \  |    /   |      \           
                |  |  |   | |  | | |   __   |  |    \   |  |\   \          
                \     /   | |  | | |  |  |  |  | |\  \  |  | \   \       
                 \___/    |_|  |_| |__|  |__|  |_| \__\ |__|  \__/        
                                                                              
                      - O R C A' S   B I G   F R I E N D -                    
                                      &                                       
                       - I N T E G R A L  F E E D E R -                       
                                                                              
 v1 FN, 2020, v2 2021                                                         
------------------------------------------------------------------------------


Reading SHARK input file NEB-TS.SHARKINP.tmp ... ok
----------------------
SHARK INTEGRAL PACKAGE
----------------------

Number of atoms                             ...      7
Number of basis functions                   ...     62
Number of shells                            ...     30
Maximum angular momentum                    ...      2
Integral batch strategy                     ... SHARK/LIBINT Hybrid
RI-J (if used) integral strategy            ... SPLIT-RIJ (Revised 2003 algorithm where possible)
Printlevel                                  ...      1
Contraction scheme used                     ... SEGMENTED contraction
Coulomb Range Separation                    ... NOT USED
Exchange Range Separation                   ... NOT USED
Finite Nucleus Model                        ... NOT USED
Auxiliary Coulomb fitting basis             ... AVAILABLE
   # of basis functions in Aux-J            ...    191
   # of shells in Aux-J                     ...     65
   Maximum angular momentum in Aux-J        ...      4
Auxiliary J/K fitting basis                 ... NOT available
Auxiliary Correlation fitting basis         ... NOT available
Auxiliary 'external' fitting basis          ... NOT available
Integral threshold                          ...     2.500000e-11
Primitive cut-off                           ...     2.500000e-12
Primitive pair pre-selection threshold      ...     2.500000e-12

Calculating pre-screening integrals         ... done (  0.0 sec) Dimension = 30
Organizing shell pair data                  ... done (  0.0 sec)
Shell pair information
Total number of shell pairs                 ...       465
Shell pairs after pre-screening             ...       464
Total number of primitive shell pairs       ...      1647
Primitive shell pairs kept                  ...      1432
          la=0 lb=0:    152 shell pairs
          la=1 lb=0:    170 shell pairs
          la=1 lb=1:     55 shell pairs
          la=2 lb=0:     51 shell pairs
          la=2 lb=1:     30 shell pairs
          la=2 lb=2:      6 shell pairs

Calculating one electron integrals          ... done (  0.0 sec)
Calculating RI/J V-Matrix + Cholesky decomp.... done (  0.0 sec)
Calculating Nuclear repulsion               ... done (  0.0 sec) ENN=     71.134490210153 Eh

SHARK setup successfully completed in   0.2 seconds

Maximum memory used throughout the entire GTOINT-calculation: 9.2 MB


           ************************************************************
           *        Program running with 4 parallel MPI-processes     *
           *              working on a common directory               *
           ************************************************************

Diagonalization of the overlap matrix:
Smallest eigenvalue                        ... 4.017e-03
Time for diagonalization                   ...    0.001 sec
Threshold for overlap eigenvalues          ... 1.000e-08
Number of eigenvalues below threshold      ... 0
Time for construction of square roots      ...    0.001 sec
Total time needed                          ...    0.004 sec

-------------------
DFT GRID GENERATION
-------------------

General Integration Accuracy     IntAcc      ... 4.388
Radial Grid Type                 RadialGrid  ... OptM3 with GC (2021)
Angular Grid (max. ang.)         AngularGrid ... 4 (Lebedev-302)
Angular grid pruning method      GridPruning ... 4 (adaptive)
Weight generation scheme         WeightScheme... Becke
Basis function cutoff            BFCut       ... 1.0000e-11
Integration weight cutoff        WCut        ... 1.0000e-14
Angular grids for H and He will be reduced by one unit
Partially contracted basis set               ... off
Rotationally invariant grid construction     ... off

Total number of grid points                  ...    31359
Total number of batches                      ...      494
Average number of points per batch           ...       63
Average number of grid points per atom       ...     4480
Time for grid setup =    0.223 sec

--------------
SCF ITERATIONS
--------------
ITER       Energy         Delta-E        Max-DP      RMS-DP      [F,P]     Damp
               ***  Starting incremental Fock matrix formation  ***
                      *** Initiating the SOSCF procedure ***
                      *** Re-Reading the Fockian *** 
                      *** Removing any level shift *** 
ITER      Energy       Delta-E        Grad      Rot      Max-DP    RMS-DP
  0   -153.43107174 -153.4310717367  0.000965  0.000965  0.002642  0.000215
               *** Restarting incremental Fock matrix formation ***
  1   -153.43111334  -0.0000416032  0.000396  0.001655  0.002331  0.000136
  2   -153.43109762   0.0000157245  0.001259  0.001459  0.002027  0.000109
  3   -153.43111788  -0.0000202652  0.000113  0.000321  0.000697  0.000046
  4   -153.43111789  -0.0000000063  0.000121  0.000139  0.000345  0.000021
  5   -153.43111837  -0.0000004857  0.000017  0.000076  0.000100  0.000007
  6   -153.43111836   0.0000000079  0.000028  0.000046  0.000061  0.000004
  7   -153.43111838  -0.0000000188  0.000010  0.000031  0.000034  0.000002
  8   -153.43111838   0.0000000010  0.000009  0.000014  0.000018  0.000001
                 **** Energy Check signals convergence ****
              ***Rediagonalizing the Fockian in SOSCF/NRSCF***

               *****************************************************
               *                     SUCCESS                       *
               *           SCF CONVERGED AFTER   9 CYCLES          *
               *****************************************************

Total Energy       :         -153.43111838 Eh           -4175.07299 eV
  Last Energy change         ...   -2.0632e-09  Tolerance :   1.0000e-08
  Last MAX-Density change    ...    5.6596e-06  Tolerance :   1.0000e-07
             **** THE GBW FILE WAS UPDATED (NEB-TS.gbw) ****
             **** DENSITY NEB-TS.scfp WAS UPDATED ****
             **** ENERGY FILE WAS UPDATED (NEB-TS.en.tmp) ****
             **** THE GBW FILE WAS UPDATED (NEB-TS.gbw) ****
             **** DENSITY NEB-TS.scfp WAS UPDATED ****
Total SCF time: 0 days 0 hours 0 min 1 sec 

Maximum memory used throughout the entire SCF-calculation: 10.2 MB


-------------------------------------------------------------------------------
                          DFT DISPERSION CORRECTION                            
                                                                               
                              DFTD3 V3.1  Rev 1                                
                          USING Becke-Johnson damping                          
-------------------------------------------------------------------------------
-------------------------   ----------------
Dispersion correction           -0.003387197
-------------------------   ----------------


-------------------------   --------------------
FINAL SINGLE POINT ENERGY      -153.434505581387
-------------------------   --------------------



           ************************************************************
           *        Program running with 4 parallel MPI-processes     *
           *              working on a common directory               *
           ************************************************************
------------------------------------------------------------------------------
                         ORCA SCF GRADIENT CALCULATION
------------------------------------------------------------------------------

Gradient of the Kohn-Sham DFT energy:
Kohn-Sham wavefunction type      ... RKS
Hartree-Fock exchange scaling    ...    0.000
Number of operators              ...    1
Number of atoms                  ...    7
Basis set dimensions             ...   62
Integral neglect threshold       ... 2.5e-11
Integral primitive cutoff        ... 2.5e-12
SHARK Integral package           ... ON

Nuc. rep. gradient       (SHARK) ... done (  0.0 sec)
HCore & Overlap gradient (SHARK) ... done (  0.0 sec)
RI-J gradient            (SHARK) ... done (  0.1 sec)
Exchange-correlation gradient    ... done
Dispersion correction            ... done

------------------
CARTESIAN GRADIENT
------------------

   1   C   :    0.000549278   -0.000026321   -0.000066896
   2   C   :    0.000474987    0.000656455    0.000089648
   3   H   :    0.000287676    0.000297748   -0.000117357
   4   H   :   -0.001035692   -0.000946535    0.000551768
   5   H   :   -0.000315959   -0.000052659   -0.000014508
   6   O   :    0.000264463   -0.000178682   -0.000719697
   7   H   :   -0.000224754    0.000249995    0.000277041

Difference to translation invariance:
           :    0.0000000000   -0.0000000000    0.0000000000

Difference to rotation invariance:
           :   -0.0000121055    0.0000362515    0.0000402036

Norm of the cartesian gradient     ...    0.0020837665
RMS gradient                       ...    0.0004547151
MAX gradient                       ...    0.0010356918

-------
TIMINGS
-------

Total SCF gradient time            ...        0.606 sec

One electron gradient       ....       0.011 sec  (  1.8%)
RI-J Coulomb gradient       ....       0.107 sec  ( 17.7%)
XC gradient                 ....       0.344 sec  ( 56.8%)

Maximum memory used throughout the entire SCFGRAD-calculation: 25.7 MB
------------------------------------------------------------------------------
                         ORCA GEOMETRY RELAXATION STEP
------------------------------------------------------------------------------

Reading the OPT-File                    .... done
Getting information on internals        .... done
Copying old internal coords+grads       .... done
Making the new internal coordinates     .... (new redundants).... done
Validating the new internal coordinates .... (new redundants).... done
Calculating the B-matrix                .... done
Calculating the G,G- and P matrices     .... done
Transforming gradient to internals      .... done
Projecting the internal gradient        .... done
Number of atoms                         ....   7
Number of internal coordinates          ....  22
Current Energy                          ....  -153.434505581 Eh
Current gradient norm                   ....     0.002083767 Eh/bohr
Maximum allowed component of the step   ....  0.300
Current trust radius                    ....  0.100
Updating the Hessian (Bofill)          .... Diagonalizing the Hessian               .... done
Dimension of the hessian                ....  22
Lowest eigenvalues of the Hessian:
 -0.086763310  0.015054974  0.030273398  0.053385527  0.056098737
Hessian has   1 negative eigenvalues
Taking P-RFO step
Searching for lambda that maximizes along the lowest mode
TS mode is mode number   0 with eigenvalue  -0.08676331 and components:
   1.    0.11238545
   2.    0.01501741
   3.   -0.60347694
   4.    0.03998708
   5.    0.01499335
   6.    0.67377822
   7.   -0.02938479
   8.   -0.13847752
   9.    0.01214961
  10.   -0.02476927
  11.    0.03242088
  12.   -0.00861465
  13.   -0.05088775
  14.   -0.00543879
  15.   -0.04182579
  16.   -0.15318215
  17.    0.21839234
  18.    0.04934036
  19.    0.02174154
  20.    0.19079352
  21.    0.13537299
  22.    0.10985927

Lambda that maximizes along the TS mode:       0.00000236
Searching for lambda that minimizes along all other modes
In cycle   1: lambdaN =  -0.00004156   step =   0.00004156
In cycle   2: lambdaN =  -0.00004156   step =   0.00000000
Lambda that minimizes along all other modes:  -0.00004156
The final length of the internal step   ....       0.0241
Converting the step to cartesian space:
 Initial RMS(Int)=    0.0051412560
Transforming coordinates:
 Iter   0:  RMS(Cart)=    0.0057501388 RMS(Int)=    0.0051511647
 Iter   1:  RMS(Cart)=    0.0000333741 RMS(Int)=    0.0000499140
 Iter   2:  RMS(Cart)=    0.0000003664 RMS(Int)=    0.0000002900
 Iter   3:  RMS(Cart)=    0.0000000040 RMS(Int)=    0.0000000056
done
Storing new coordinates                 .... done
The predicted energy change is          ....    -0.000019607
Previously predicted energy change      ....    -0.000020307
Actually observed energy change         ....     0.000003522
Ratio of predicted to observed change   ....    -0.173465703
New trust radius                        ....     0.100000000

                                .--------------------.
          ----------------------|Geometry convergence|-------------------------
          Item                value                   Tolerance       Converged
          ---------------------------------------------------------------------
          Energy change       0.0000035225            0.0000050000      YES
          RMS gradient        0.0004578608            0.0001000000      NO
          MAX gradient        0.0012331825            0.0003000000      NO
          RMS step            0.0051412560            0.0020000000      NO
          MAX step            0.0156448177            0.0040000000      NO
          ........................................................
          Max(Bonds)      0.0060      Max(Angles)    0.12
          Max(Dihed)        0.90      Max(Improp)    0.00
          ---------------------------------------------------------------------

The optimization has not yet converged - more geometry cycles are needed


    ---------------------------------------------------------------------------
                         Redundant Internal Coordinates
                            (Angstroem and degrees)

        Definition                    Value    dE/dq     Step     New-Value  comp.(TS mode)
    ----------------------------------------------------------------------------
     1. B(C   1,C   0)                1.4165  0.000142 -0.0004    1.4161   
     2. B(H   2,C   1)                1.1086 -0.000111  0.0000    1.1086   
     3. B(H   3,C   1)                1.4983 -0.000513  0.0060    1.5043          0.60
     4. B(H   3,C   0)                1.5963 -0.000483  0.0025    1.5988   
     5. B(H   4,C   1)                1.1033 -0.000007 -0.0000    1.1033   
     6. B(O   5,H   3)                1.3125 -0.000482 -0.0000    1.3125          0.67
     7. B(O   5,C   1)                2.2348 -0.000083 -0.0000    2.2348   
     8. B(O   5,C   0)                1.2882 -0.000292  0.0005    1.2886   
     9. B(H   6,C   0)                1.1127  0.000053 -0.0001    1.1126   
    10. A(C   1,C   0,H   6)          129.84  0.000380   -0.04    129.81   
    11. A(O   5,C   0,H   6)          118.77 -0.000408    0.05    118.82   
    12. A(C   1,C   0,O   5)          111.35  0.000023   -0.01    111.34   
    13. A(H   2,C   1,H   4)          113.52  0.000134   -0.02    113.50   
    14. A(C   0,C   1,H   4)          123.07 -0.000462    0.05    123.12   
    15. A(C   0,C   1,H   2)          112.18  0.000375   -0.05    112.13   
    16. A(C   0,O   5,H   3)           75.73 -0.000003    0.12     75.85   
    17. D(H   2,C   1,C   0,O   5)     63.34 -0.000259   -0.29     63.05   
    18. D(H   4,C   1,C   0,O   5)   -155.42 -0.000101   -0.35   -155.77   
    19. D(H   4,C   1,C   0,H   6)     22.32 -0.000268   -0.02     22.30   
    20. D(H   2,C   1,C   0,H   6)   -118.92 -0.000426    0.04   -118.89   
    21. D(H   3,O   5,C   0,H   6)   -167.97 -0.001105    0.61   -167.35   
    22. D(H   3,O   5,C   0,C   1)     10.05 -0.001233    0.90     10.95   
    ----------------------------------------------------------------------------

         *************************************************************
         *                GEOMETRY OPTIMIZATION CYCLE   3            *
         *************************************************************
---------------------------------
CARTESIAN COORDINATES (ANGSTROEM)
---------------------------------
  C     -0.662390    0.280347   -0.098666
  C      0.508887   -0.512416   -0.169506
  H      0.840362   -0.857943    0.830363
  H      0.744276    0.865507    0.386152
  H      0.691798   -1.247360   -0.971816
  O     -0.456483    1.362565    0.569934
  H     -1.666450    0.109300   -0.546461

----------------------------
CARTESIAN COORDINATES (A.U.)
----------------------------
  NO LB      ZA    FRAG     MASS         X           Y           Z
   0 C     6.0000    0    12.011   -1.251735    0.529779   -0.186451
   1 C     6.0000    0    12.011    0.961657   -0.968325   -0.320320
   2 H     1.0000    0     1.008    1.588053   -1.621277    1.569159
   3 H     1.0000    0     1.008    1.406477    1.635571    0.729721
   4 H     1.0000    0     1.008    1.307309   -2.357170   -1.836466
   5 O     8.0000    0    15.999   -0.862627    2.574875    1.077019
   6 H     1.0000    0     1.008   -3.149134    0.206547   -1.032662

--------------------------------
INTERNAL COORDINATES (ANGSTROEM)
--------------------------------
 C      0   0   0     0.000000000000     0.00000000     0.00000000
 C      1   0   0     1.416114783899     0.00000000     0.00000000
 H      2   1   0     1.108604328494   112.12756733     0.00000000
 H      2   1   3     1.504272071130    66.30629118   286.84475188
 H      2   1   3     1.103313474885   123.12065933   141.18206042
 O      1   2   3     1.288650191663   111.34189980    63.04890679
 H      1   2   3     1.112616050216   129.80752707   241.11408019

---------------------------
INTERNAL COORDINATES (A.U.)
---------------------------
 C      0   0   0     0.000000000000     0.00000000     0.00000000
 C      1   0   0     2.676069115766     0.00000000     0.00000000
 H      2   1   0     2.094958571733   112.12756733     0.00000000
 H      2   1   3     2.842662245342    66.30629118   286.84475188
 H      2   1   3     2.084960307397   123.12065933   141.18206042
 O      1   2   3     2.435195944667   111.34189980    63.04890679
 H      1   2   3     2.102539627114   129.80752707   241.11408019



           ************************************************************
           *        Program running with 4 parallel MPI-processes     *
           *              working on a common directory               *
           ************************************************************
------------------------------------------------------------------------------
                   ___                                                        
                  /   \      - P O W E R E D   B Y -                         
                 /     \                                                     
                 |  |  |   _    _      __       _____    __    __             
                 |  |  |  | |  | |    /  \     |  _  \  |  |  /  |          
                  \  \/   | |  | |   /    \    | | | |  |  | /  /          
                 / \  \   | |__| |  /  /\  \   | |_| |  |  |/  /          
                |  |  |   |  __  | /  /__\  \  |    /   |      \           
                |  |  |   | |  | | |   __   |  |    \   |  |\   \          
                \     /   | |  | | |  |  |  |  | |\  \  |  | \   \       
                 \___/    |_|  |_| |__|  |__|  |_| \__\ |__|  \__/        
                                                                              
                      - O R C A' S   B I G   F R I E N D -                    
                                      &                                       
                       - I N T E G R A L  F E E D E R -                       
                                                                              
 v1 FN, 2020, v2 2021                                                         
------------------------------------------------------------------------------


Reading SHARK input file NEB-TS.SHARKINP.tmp ... ok
----------------------
SHARK INTEGRAL PACKAGE
----------------------

Number of atoms                             ...      7
Number of basis functions                   ...     62
Number of shells                            ...     30
Maximum angular momentum                    ...      2
Integral batch strategy                     ... SHARK/LIBINT Hybrid
RI-J (if used) integral strategy            ... SPLIT-RIJ (Revised 2003 algorithm where possible)
Printlevel                                  ...      1
Contraction scheme used                     ... SEGMENTED contraction
Coulomb Range Separation                    ... NOT USED
Exchange Range Separation                   ... NOT USED
Finite Nucleus Model                        ... NOT USED
Auxiliary Coulomb fitting basis             ... AVAILABLE
   # of basis functions in Aux-J            ...    191
   # of shells in Aux-J                     ...     65
   Maximum angular momentum in Aux-J        ...      4
Auxiliary J/K fitting basis                 ... NOT available
Auxiliary Correlation fitting basis         ... NOT available
Auxiliary 'external' fitting basis          ... NOT available
Integral threshold                          ...     2.500000e-11
Primitive cut-off                           ...     2.500000e-12
Primitive pair pre-selection threshold      ...     2.500000e-12

Calculating pre-screening integrals         ... done (  0.0 sec) Dimension = 30
Organizing shell pair data                  ... done (  0.0 sec)
Shell pair information
Total number of shell pairs                 ...       465
Shell pairs after pre-screening             ...       464
Total number of primitive shell pairs       ...      1647
Primitive shell pairs kept                  ...      1432
          la=0 lb=0:    152 shell pairs
          la=1 lb=0:    170 shell pairs
          la=1 lb=1:     55 shell pairs
          la=2 lb=0:     51 shell pairs
          la=2 lb=1:     30 shell pairs
          la=2 lb=2:      6 shell pairs

Calculating one electron integrals          ... done (  0.0 sec)
Calculating RI/J V-Matrix + Cholesky decomp.... done (  0.0 sec)
Calculating Nuclear repulsion               ... done (  0.0 sec) ENN=     71.119521497972 Eh

SHARK setup successfully completed in   0.1 seconds

Maximum memory used throughout the entire GTOINT-calculation: 9.2 MB


           ************************************************************
           *        Program running with 4 parallel MPI-processes     *
[...]
Auxiliary 'external' fitting basis          ... NOT available
Integral threshold                          ...     2.500000e-11
Primitive cut-off                           ...     2.500000e-12
Primitive pair pre-selection threshold      ...     2.500000e-12

Calculating pre-screening integrals         ... done (  0.0 sec) Dimension = 30
Organizing shell pair data                  ... done (  0.0 sec)
Shell pair information
Total number of shell pairs                 ...       465
Shell pairs after pre-screening             ...       464
Total number of primitive shell pairs       ...      1647
Primitive shell pairs kept                  ...      1432
          la=0 lb=0:    152 shell pairs
          la=1 lb=0:    170 shell pairs
          la=1 lb=1:     55 shell pairs
          la=2 lb=0:     51 shell pairs
          la=2 lb=1:     30 shell pairs
          la=2 lb=2:      6 shell pairs

Calculating one electron integrals          ... done (  0.0 sec)
Calculating RI/J V-Matrix + Cholesky decomp.... done (  0.0 sec)
Calculating Nuclear repulsion               ... done (  0.0 sec) ENN=     71.101195807715 Eh

SHARK setup successfully completed in   0.1 seconds

Maximum memory used throughout the entire GTOINT-calculation: 9.2 MB


           ************************************************************
           *        Program running with 4 parallel MPI-processes     *
           *              working on a common directory               *
           ************************************************************
-------------------------------------------------------------------------------
                                 ORCA SCF
-------------------------------------------------------------------------------

------------
SCF SETTINGS
------------
Hamiltonian:
 Density Functional     Method          .... DFT(GTOs)
 Exchange Functional    Exchange        .... PBE
   PBE kappa parameter   XKappa         ....  0.804000
   PBE mue parameter    XMuePBE         ....  0.219520
 Correlation Functional Correlation     .... PBE
   PBE beta parameter  CBetaPBE         ....  0.066725
 LDA part of GGA corr.  LDAOpt          .... PW91-LDA
 Gradients option       PostSCFGGA      .... off
   Density functional embedding theory  .... OFF
   NL short-range parameter             ....  6.400000
 RI-approximation to the Coulomb term is turned on
   Number of AuxJ basis functions       .... 191


General Settings:
 Integral files         IntName         .... NEB-TS
 Hartree-Fock type      HFTyp           .... RHF
 Total Charge           Charge          ....    0
 Multiplicity           Mult            ....    1
 Number of Electrons    NEL             ....   24
 Basis Dimension        Dim             ....   62
 Nuclear Repulsion      ENuc            ....     71.1011958077 Eh

Convergence Acceleration:
 DIIS                   CNVDIIS         .... on
   Start iteration      DIISMaxIt       ....    12
   Startup error        DIISStart       ....  0.200000
   # of expansion vecs  DIISMaxEq       ....     5
   Bias factor          DIISBfac        ....   1.050
   Max. coefficient     DIISMaxC        ....  10.000
 Trust-Rad. Augm. Hess. CNVTRAH         .... auto
   Auto Start mean grad. ratio tolernc. ....  1.125000
   Auto Start start iteration           ....     1
   Auto Start num. interpolation iter.  ....    10
   Max. Number of Micro iterations      ....    16
   Max. Number of Macro iterations      .... Maxiter - #DIIS iter
   Number of Davidson start vectors     ....     2
   Converg. threshold I  (grad. norm)   ....   1.000e-05
   Converg. threshold II (energy diff.) ....   1.000e-08
   Grad. Scal. Fac. for Micro threshold ....   0.100
   Minimum threshold for Micro iter.    ....   0.010
   NR start threshold (gradient norm)   ....   0.001
   Initial trust radius                 ....   0.400
   Minimum AH scaling param. (alpha)    ....   1.000
   Maximum AH scaling param. (alpha)    .... 1000.000
   Orbital update algorithm             .... Taylor
   White noise on init. David. guess    .... on
   Maximum white noise                  ....   0.010
   Quad. conv. algorithm                .... NR
 SOSCF                  CNVSOSCF        .... on
   Start iteration      SOSCFMaxIt      ....   150
   Startup grad/error   SOSCFStart      ....  0.003300
 Level Shifting         CNVShift        .... on
   Level shift para.    LevelShift      ....    0.2500
   Turn off err/grad.   ShiftErr        ....    0.0010
 Zerner damping         CNVZerner       .... off
 Static damping         CNVDamp         .... on
   Fraction old density DampFac         ....    0.7000
   Max. Damping (<1)    DampMax         ....    0.9800
   Min. Damping (>=0)   DampMin         ....    0.0000
   Turn off err/grad.   DampErr         ....    0.1000
 Fernandez-Rico         CNVRico         .... off

SCF Procedure:
 Maximum # iterations   MaxIter         ....   125
 SCF integral mode      SCFMode         .... Direct
   Integral package                     .... SHARK and LIBINT hybrid scheme
 Reset frequency        DirectResetFreq ....    20
 Integral Threshold     Thresh          ....  2.500e-11 Eh
 Primitive CutOff       TCut            ....  2.500e-12 Eh

Convergence Tolerance:
 Convergence Check Mode ConvCheckMode   .... Total+1el-Energy
 Convergence forced     ConvForced      .... 0
 Energy Change          TolE            ....  1.000e-08 Eh
 1-El. energy change                    ....  1.000e-05 Eh
 Orbital Gradient       TolG            ....  1.000e-05
 Orbital Rotation angle TolX            ....  1.000e-05
 DIIS Error             TolErr          ....  5.000e-07


Diagonalization of the overlap matrix:
Smallest eigenvalue                        ... 4.027e-03
Time for diagonalization                   ...    0.000 sec
Threshold for overlap eigenvalues          ... 1.000e-08
Number of eigenvalues below threshold      ... 0
Time for construction of square roots      ...    0.000 sec
Total time needed                          ...    0.001 sec

---------------------
INITIAL GUESS: MOREAD
---------------------
Guess MOs are being read from file: NEB-TS.gbw
Input Geometry matches current geometry (good)
Input basis set matches current basis set (good)
MOs were renormalized
MOs were reorthogonalized (Cholesky)
                      ------------------
                      INITIAL GUESS DONE (   0.0 sec)
                      ------------------
-------------------
DFT GRID GENERATION
-------------------

General Integration Accuracy     IntAcc      ... 4.388
Radial Grid Type                 RadialGrid  ... OptM3 with GC (2021)
Angular Grid (max. ang.)         AngularGrid ... 4 (Lebedev-302)
Angular grid pruning method      GridPruning ... 4 (adaptive)
Weight generation scheme         WeightScheme... Becke
Basis function cutoff            BFCut       ... 1.0000e-11
Integration weight cutoff        WCut        ... 1.0000e-14
Angular grids for H and He will be reduced by one unit
Partially contracted basis set               ... off
Rotationally invariant grid construction     ... off

Total number of grid points                  ...    31359
Total number of batches                      ...      494
Average number of points per batch           ...       63
Average number of grid points per atom       ...     4480
Time for grid setup =    0.129 sec

--------------
SCF ITERATIONS
--------------
ITER       Energy         Delta-E        Max-DP      RMS-DP      [F,P]     Damp
               ***  Starting incremental Fock matrix formation  ***
                      *** Initiating the SOSCF procedure ***
                      *** Re-Reading the Fockian *** 
                      *** Removing any level shift *** 
ITER      Energy       Delta-E        Grad      Rot      Max-DP    RMS-DP
  0   -153.43112676 -153.4311267579  0.000031  0.000031  0.000111  0.000007
               *** Restarting incremental Fock matrix formation ***
  1   -153.43112681  -0.0000000478  0.000014  0.000108  0.000081  0.000006
  2   -153.43112681  -0.0000000019  0.000020  0.000082  0.000070  0.000004
  3   -153.43112681  -0.0000000002  0.000019  0.000105  0.000072  0.000004
  4   -153.43112681  -0.0000000051  0.000006  0.000016  0.000025  0.000001
  5   -153.43112681  -0.0000000002  0.000006  0.000009  0.000015  0.000001
                  ***Gradient check signals convergence***
              ***Rediagonalizing the Fockian in SOSCF/NRSCF***

               *****************************************************
               *                     SUCCESS                       *
               *           SCF CONVERGED AFTER   6 CYCLES          *
               *****************************************************


----------------
TOTAL SCF ENERGY
----------------

Total Energy       :         -153.43112681 Eh           -4175.07322 eV

Components:
Nuclear Repulsion  :           71.10119581 Eh            1934.76190 eV
Electronic Energy  :         -224.53232262 Eh           -6109.83512 eV
One Electron Energy:         -348.56851696 Eh           -9485.03156 eV
Two Electron Energy:          124.03619434 Eh            3375.19644 eV

Virial components:
Potential Energy   :         -305.49820171 Eh           -8313.02869 eV
Kinetic Energy     :          152.06707490 Eh            4137.95548 eV
Virial Ratio       :            2.00897007


DFT components:
N(Alpha)           :       11.999997232330 electrons
N(Beta)            :       11.999997232330 electrons
N(Total)           :       23.999994464660 electrons
E(X)               :      -19.816490802182 Eh       
E(C)               :       -0.789914190493 Eh       
E(XC)              :      -20.606404992675 Eh       
DFET-embed. en.    :        0.000000000000 Eh       

---------------
SCF CONVERGENCE
---------------

  Last Energy change         ...   -5.4592e-10  Tolerance :   1.0000e-08
  Last MAX-Density change    ...    1.0203e-05  Tolerance :   1.0000e-07
  Last RMS-Density change    ...    4.8967e-07  Tolerance :   5.0000e-09
  Last Orbital Gradient      ...    1.7593e-06  Tolerance :   1.0000e-05
  Last Orbital Rotation      ...    4.1919e-06  Tolerance :   1.0000e-05

             **** THE GBW FILE WAS UPDATED (NEB-TS.gbw) ****
             **** DENSITY NEB-TS.scfp WAS UPDATED ****
             **** ENERGY FILE WAS UPDATED (NEB-TS.en.tmp) ****
             **** THE GBW FILE WAS UPDATED (NEB-TS.gbw) ****
             **** DENSITY NEB-TS.scfp WAS UPDATED ****
----------------
ORBITAL ENERGIES
----------------

  NO   OCC          E(Eh)            E(eV) 
   0   2.0000     -18.782290      -511.0921 
   1   2.0000      -9.992589      -271.9122 
   2   2.0000      -9.889113      -269.0964 
   3   2.0000      -0.966767       -26.3071 
   4   2.0000      -0.660659       -17.9774 
   5   2.0000      -0.536891       -14.6095 
   6   2.0000      -0.450961       -12.2713 
   7   2.0000      -0.402942       -10.9646 
   8   2.0000      -0.380705       -10.3595 
   9   2.0000      -0.339291        -9.2326 
  10   2.0000      -0.284723        -7.7477 
  11   2.0000      -0.198805        -5.4098 
  12   0.0000      -0.085780        -2.3342 
  13   0.0000       0.036770         1.0006 
  14   0.0000       0.061690         1.6787 
  15   0.0000       0.081748         2.2245 
  16   0.0000       0.115768         3.1502 
  17   0.0000       0.188763         5.1365 
  18   0.0000       0.253279         6.8921 
  19   0.0000       0.336179         9.1479 
  20   0.0000       0.375037        10.2053 
  21   0.0000       0.446165        12.1408 
  22   0.0000       0.469427        12.7738 
  23   0.0000       0.491052        13.3622 
  24   0.0000       0.523458        14.2440 
  25   0.0000       0.546390        14.8680 
  26   0.0000       0.592033        16.1100 
  27   0.0000       0.618478        16.8296 
  28   0.0000       0.655675        17.8418 
  29   0.0000       0.680611        18.5204 
  30   0.0000       0.728577        19.8256 
  31   0.0000       0.881633        23.9904 
  32   0.0000       0.924910        25.1681 
  33   0.0000       1.048572        28.5331 
  34   0.0000       1.163530        31.6613 
  35   0.0000       1.228486        33.4288 
  36   0.0000       1.326061        36.0839 
  37   0.0000       1.406793        38.2808 
  38   0.0000       1.411214        38.4011 
  39   0.0000       1.467523        39.9333 
  40   0.0000       1.503843        40.9217 
  41   0.0000       1.591318        43.3020 
  42   0.0000       1.639735        44.6195 
  43   0.0000       1.669205        45.4214 
  44   0.0000       1.724784        46.9338 
  45   0.0000       1.833054        49.8799 
  46   0.0000       1.846911        50.2570 
  47   0.0000       1.913057        52.0569 
  48   0.0000       1.983173        53.9649 
  49   0.0000       2.068774        56.2942 
  50   0.0000       2.211831        60.1870 
  51   0.0000       2.325411        63.2776 
  52   0.0000       2.408651        65.5427 
  53   0.0000       2.482174        67.5434 
  54   0.0000       2.609772        71.0155 
  55   0.0000       2.697750        73.4095 
  56   0.0000       2.770609        75.3921 
  57   0.0000       2.903357        79.0044 
  58   0.0000       2.930346        79.7388 
  59   0.0000       3.064557        83.3908 
  60   0.0000       3.302070        89.8539 
  61   0.0000       3.400386        92.5292 
-------
TIMINGS
-------

Total SCF time: 0 days 0 hours 0 min 0 sec 

Total time                  ....       0.737 sec
Sum of individual times     ....       0.657 sec  ( 89.1%)

Fock matrix formation       ....       0.508 sec  ( 69.0%)
  Split-RI-J                ....       0.106 sec  ( 20.8% of F)
  XC integration            ....       0.397 sec  ( 78.0% of F)
    Basis function eval.    ....       0.139 sec  ( 35.2% of XC)
    Density eval.           ....       0.076 sec  ( 19.3% of XC)
    XC-Functional eval.     ....       0.052 sec  ( 13.1% of XC)
    XC-Potential eval.      ....       0.070 sec  ( 17.5% of XC)
Diagonalization             ....       0.002 sec  (  0.3%)
Density matrix formation    ....       0.001 sec  (  0.1%)
Population analysis         ....       0.000 sec  (  0.0%)
Initial guess               ....       0.002 sec  (  0.2%)
Orbital Transformation      ....       0.000 sec  (  0.0%)
Orbital Orthonormalization  ....       0.000 sec  (  0.0%)
DIIS solution               ....       0.001 sec  (  0.1%)
SOSCF solution              ....       0.014 sec  (  1.9%)
Grid generation             ....       0.129 sec  ( 17.4%)

Maximum memory used throughout the entire SCF-calculation: 10.2 MB


-------------------------------------------------------------------------------
                          DFT DISPERSION CORRECTION                            
                                                                               
                              DFTD3 V3.1  Rev 1                                
                          USING Becke-Johnson damping                          
-------------------------------------------------------------------------------
The PBE functional is recognized
Active option DFTDOPT                   ...         4   

molecular C6(AA) [au] = 414.484565 


            DFT-D V3
 parameters
 s6 scaling factor         :     1.0000 
 a1 scaling factor         :     0.4289 
 s8 scaling factor         :     0.7875 
 a2 scaling factor         :     4.4407 
 ad hoc parameters k1-k3   :    16.0000     1.3333    -4.0000 

 Edisp/kcal,au: -2.131182192103  -0.003396254643 
 E6   /kcal   :  -1.538734963 
 E8   /kcal   :  -0.592447229 
 % E8         :  27.798994922 

-------------------------   ----------------
Dispersion correction           -0.003396255
-------------------------   ----------------


-------------------------   --------------------
FINAL SINGLE POINT ENERGY      -153.434523068242
-------------------------   --------------------

                                *** OPTIMIZATION RUN DONE ***


                    ***********************HURRAY************************
                    ***        THE TS OPTIMIZATION HAS CONVERGED      ***
                    *****************************************************



---------------------------------------------------------------
                      PATH SUMMARY FOR NEB-TS             
---------------------------------------------------------------
All forces in Eh/Bohr. Global forces for TS.

Image     E(Eh)   dE(kcal/mol)  max(|Fp|)  RMS(Fp)
  0    -153.53120     0.00       0.00506   0.00314
  1    -153.50053    19.24       0.00188   0.00084
  2    -153.45622    47.05       0.00137   0.00063
  3    -153.43451    60.67       0.00101   0.00043 <= CI
 TS    -153.43452    60.66       0.00017   0.00008 <= TS
  4    -153.45941    45.05       0.00153   0.00087
  5    -153.49279    24.10       0.00133   0.00062
  6    -153.51375    10.95       0.01257   0.00447
----------
STATISTICS
----------

For the individual parts of the NEB, NEB-CI or NEB-TS run:

Number of iterations:
     NEB                               ... 25  80.6%
     TS optimization                   ... 6  19.4%
Number of SCF / gradient calculations:
     NEB                               ... 152  96.2%
     TS optimization                   ... 6  3.8%

----------
 TIMINGS
----------

For the individual parts of the NEB, NEB-CI or NEB-TS run:

Total                                  ...      376.752 sec
NEB                                    ...      358.092 sec  95.0%
TS Optimization                        ...       18.660 sec  5.0%


                            ***************************************
                            *     ORCA property calculations      *
                            ***************************************

                                    ---------------------
                                    Active property flags
                                    ---------------------
   (+) Dipole Moment


------------------------------------------------------------------------------
                       ORCA ELECTRIC PROPERTIES CALCULATION
------------------------------------------------------------------------------

Dipole Moment Calculation                       ... on
Quadrupole Moment Calculation                   ... off
Polarizability Calculation                      ... off
GBWName                                         ... NEB-TS.gbw
Electron density                                ... NEB-TS.scfp
The origin for moment calculation is the CENTER OF MASS  = (-0.366247,  0.768547  0.238408)

-------------
DIPOLE MOMENT
-------------
                                X             Y             Z
Electronic contribution:     -1.45440       2.08139       0.58899
Nuclear contribution   :      1.29626      -2.57527      -0.74828
                        -----------------------------------------
Total Dipole Moment    :     -0.15814      -0.49388      -0.15929
                        -----------------------------------------
Magnitude (a.u.)       :      0.54249
Magnitude (Debye)      :      1.37890



--------------------
Rotational spectrum 
--------------------
 
Rotational constants in cm-1:     1.614591     0.402411     0.334950 
Rotational constants in MHz : 48404.219277 12063.986140 10041.549315 

 Dipole components along the rotational axes: 
x,y,z [a.u.] :    -0.395656    -0.335155     0.159442 
x,y,z [Debye]:    -1.005677    -0.851897     0.405270 

 

Timings for individual modules:

Sum of individual times         ...      381.491 sec (=   6.358 min)
GTO integral calculation        ...        4.159 sec (=   0.069 min)   1.1 %
SCF iterations                  ...       12.753 sec (=   0.213 min)   3.3 %
SCF Gradient evaluation         ...        6.379 sec (=   0.106 min)   1.7 %
Geometry relaxation             ...        0.108 sec (=   0.002 min)   0.0 %
NEB Iterations                  ...      358.092 sec (=   5.968 min)  93.9 %
                             ****ORCA TERMINATED NORMALLY****
TOTAL RUN TIME: 0 days 0 hours 6 minutes 17 seconds 930 msec
