
                                 *****************
                                 * O   R   C   A *
                                 *****************

                                            #,                                       
                                            ###                                      
                                            ####                                     
                                            #####                                    
                                            ######                                   
                                           ########,                                 
                                     ,,################,,,,,                         
                               ,,#################################,,                 
                          ,,##########################################,,             
                       ,#########################################, ''#####,          
                    ,#############################################,,   '####,        
                  ,##################################################,,,,####,       
                ,###########''''           ''''###############################       
              ,#####''   ,,,,##########,,,,          '''####'''          '####       
            ,##' ,,,,###########################,,,                        '##       
           ' ,,###''''                  '''############,,,                           
         ,,##''                                '''############,,,,        ,,,,,,###''
      ,#''                                            '''#######################'''  
     '                                                          ''''####''''         
             ,#######,   #######,   ,#######,      ##                                
            ,#'     '#,  ##    ##  ,#'     '#,    #''#        ######   ,####,        
            ##       ##  ##   ,#'  ##            #'  '#       #        #'  '#        
            ##       ##  #######   ##           ,######,      #####,   #    #        
            '#,     ,#'  ##    ##  '#,     ,#' ,#      #,         ##   #,  ,#        
             '#######'   ##     ##  '#######'  #'      '#     #####' # '####'        



                  #######################################################
                  #                        -***-                        #
                  #          Department of theory and spectroscopy      #
                  #    Directorship and core code : Frank Neese         #
                  #        Max Planck Institute fuer Kohlenforschung    #
                  #                Kaiser Wilhelm Platz 1               #
                  #                 D-45470 Muelheim/Ruhr               #
                  #                      Germany                        #
                  #                                                     #
                  #                  All rights reserved                #
                  #                        -***-                        #
                  #######################################################


                         Program Version 5.0.4 -  RELEASE  -


 With contributions from (in alphabetic order):
   Daniel Aravena         : Magnetic Suceptibility
   Michael Atanasov       : Ab Initio Ligand Field Theory (pilot matlab implementation)
   Alexander A. Auer      : GIAO ZORA, VPT2 properties, NMR spectrum
   Ute Becker             : Parallelization
   Giovanni Bistoni       : ED, misc. LED, open-shell LED, HFLD
   Martin Brehm           : Molecular dynamics
   Dmytro Bykov           : SCF Hessian
   Vijay G. Chilkuri      : MRCI spin determinant printing, contributions to CSF-ICE
   Dipayan Datta          : RHF DLPNO-CCSD density
   Achintya Kumar Dutta   : EOM-CC, STEOM-CC
   Dmitry Ganyushin       : Spin-Orbit,Spin-Spin,Magnetic field MRCI
   Miquel Garcia          : C-PCM and meta-GGA Hessian, CC/C-PCM, Gaussian charge scheme
   Yang Guo               : DLPNO-NEVPT2, F12-NEVPT2, CIM, IAO-localization
   Andreas Hansen         : Spin unrestricted coupled pair/coupled cluster methods
   Benjamin Helmich-Paris : MC-RPA, TRAH-SCF, COSX integrals
   Lee Huntington         : MR-EOM, pCC
   Robert Izsak           : Overlap fitted RIJCOSX, COSX-SCS-MP3, EOM
   Marcus Kettner         : VPT2
   Christian Kollmar      : KDIIS, OOCD, Brueckner-CCSD(T), CCSD density, CASPT2, CASPT2-K
   Simone Kossmann        : Meta GGA functionals, TD-DFT gradient, OOMP2, MP2 Hessian
   Martin Krupicka        : Initial AUTO-CI
   Lucas Lang             : DCDCAS
   Marvin Lechner         : AUTO-CI (C++ implementation), FIC-MRCC
   Dagmar Lenk            : GEPOL surface, SMD
   Dimitrios Liakos       : Extrapolation schemes; Compound Job, initial MDCI parallelization
   Dimitrios Manganas     : Further ROCIS development; embedding schemes
   Dimitrios Pantazis     : SARC Basis sets
   Anastasios Papadopoulos: AUTO-CI, single reference methods and gradients
   Taras Petrenko         : DFT Hessian,TD-DFT gradient, ASA, ECA, R-Raman, ABS, FL, XAS/XES, NRVS
   Peter Pinski           : DLPNO-MP2, DLPNO-MP2 Gradient
   Christoph Reimann      : Effective Core Potentials
   Marius Retegan         : Local ZFS, SOC
   Christoph Riplinger    : Optimizer, TS searches, QM/MM, DLPNO-CCSD(T), (RO)-DLPNO pert. Triples
   Tobias Risthaus        : Range-separated hybrids, TD-DFT gradient, RPA, STAB
   Michael Roemelt        : Original ROCIS implementation
   Masaaki Saitow         : Open-shell DLPNO-CCSD energy and density
   Barbara Sandhoefer     : DKH picture change effects
   Avijit Sen             : IP-ROCIS
   Kantharuban Sivalingam : CASSCF convergence, NEVPT2, FIC-MRCI
   Bernardo de Souza      : ESD, SOC TD-DFT
   Georgi Stoychev        : AutoAux, RI-MP2 NMR, DLPNO-MP2 response
   Willem Van den Heuvel  : Paramagnetic NMR
   Boris Wezisla          : Elementary symmetry handling
   Frank Wennmohs         : Technical directorship


 We gratefully acknowledge several colleagues who have allowed us to
 interface, adapt or use parts of their codes:
   Stefan Grimme, W. Hujo, H. Kruse, P. Pracht,  : VdW corrections, initial TS optimization,
                  C. Bannwarth, S. Ehlert          DFT functionals, gCP, sTDA/sTD-DF
   Ed Valeev, F. Pavosevic, A. Kumar             : LibInt (2-el integral package), F12 methods
   Garnet Chan, S. Sharma, J. Yang, R. Olivares  : DMRG
   Ulf Ekstrom                                   : XCFun DFT Library
   Mihaly Kallay                                 : mrcc  (arbitrary order and MRCC methods)
   Jiri Pittner, Ondrej Demel                    : Mk-CCSD
   Frank Weinhold                                : gennbo (NPA and NBO analysis)
   Christopher J. Cramer and Donald G. Truhlar   : smd solvation model
   Lars Goerigk                                  : TD-DFT with DH, B97 family of functionals
   V. Asgeirsson, H. Jonsson                     : NEB implementation
   FAccTs GmbH                                   : IRC, NEB, NEB-TS, DLPNO-Multilevel, CI-OPT
                                                   MM, QMMM, 2- and 3-layer-ONIOM, Crystal-QMMM,
                                                   LR-CPCM, SF, NACMEs, symmetry and pop. for TD-DFT,
                                                   nearIR, NL-DFT gradient (VV10), updates on ESD,
                                                   ML-optimized integration grids
   S Lehtola, MJT Oliveira, MAL Marques          : LibXC Library
   Liviu Ungur et al                             : ANISO software


 Your calculation uses the libint2 library for the computation of 2-el integrals
 For citations please refer to: http://libint.valeyev.net

 Your ORCA version has been built with support for libXC version: 5.1.0
 For citations please refer to: https://tddft.org/programs/libxc/

 This ORCA versions uses:
   CBLAS   interface :  Fast vector & matrix operations
   LAPACKE interface :  Fast linear algebra routines
   SCALAPACK package :  Parallel linear algebra routines
   Shared memory     :  Shared parallel matrices
   BLAS/LAPACK       :  OpenBLAS 0.3.15  USE64BITINT DYNAMIC_ARCH NO_AFFINITY SkylakeX SINGLE_THREADED
        Core in use  :  SkylakeX
   Copyright (c) 2011-2014, The OpenBLAS Project


Your calculation utilizes the atom-pairwise dispersion correction
with the Becke-Johnson damping scheme (D3BJ)
Cite in your paper:
S.Grimme, S.Ehrlich, L.Goerigk, J Comput Chem, (2011), 32, 1456–1465 
S.Grimme, J.Antony, S.Ehrlich and H.Krieg, J.Chem.Phys., 132, (2010), 154104 
   

================================================================================

----- Orbital basis set information -----
Your calculation utilizes the basis: def2-SVP
   F. Weigend and R. Ahlrichs, Phys. Chem. Chem. Phys. 7, 3297 (2005).

----- AuxJ basis set information -----
Your calculation utilizes the auxiliary basis: def2/J
   F. Weigend, Phys. Chem. Chem. Phys. 8, 1057 (2006).

================================================================================
                                        WARNINGS
                       Please study these warnings very carefully!
================================================================================


WARNING: Geometry Optimization
  ===> : Switching off AutoStart
         For restart on a previous wavefunction, please use MOREAD

INFO   : the flag for use of the SHARK integral package has been found!

================================================================================
                                       INPUT FILE
================================================================================
NAME = opt_TS.inp
|  1> ! PBE def2-SVP D3BJ OptTS TightSCF SlowConv Freq
|  2> 
|  3> %pal
|  4>     nprocs 4
|  5> end
|  6> 
|  7> %maxcore 750
|  8> 
|  9> %geom
| 10>     Calc_Hess true
| 11> end
| 12> 
| 13> *xyz -1 1
| 14>     C    -4.385749529254      1.269519633374      0.011565976389
| 15>     Br   -2.047465069654      1.252802452831     -0.357180764199
| 16>     H    -4.334583957955      2.164377592773      0.612638894366
| 17>     H    -4.354620927320      0.261449600786      0.413228658134
| 18>     H    -4.591033126959      1.347313678570     -1.045064392118
| 19>     Cl   -6.748825362206      1.347965581324      0.281376537872
| 20> *
| 21> 
| 22> 
| 23>                          ****END OF INPUT****
================================================================================

                       *****************************
                       * Geometry Optimization Run *
                       *****************************

Geometry optimization settings:
Update method            Update   .... Bofill
Choice of coordinates    CoordSys .... Z-matrix Internals
Initial Hessian          InHess   .... Almoef's Model

Convergence Tolerances:
Energy Change            TolE     ....  5.0000e-06 Eh
Max. Gradient            TolMAXG  ....  3.0000e-04 Eh/bohr
RMS Gradient             TolRMSG  ....  1.0000e-04 Eh/bohr
Max. Displacement        TolMAXD  ....  4.0000e-03 bohr
RMS Displacement         TolRMSD  ....  2.0000e-03 bohr
Strict Convergence                ....  False
------------------------------------------------------------------------------
                        ORCA OPTIMIZATION COORDINATE SETUP
------------------------------------------------------------------------------

The optimization will be done in new redundant internal coordinates
Making redundant internal coordinates   ...  (new redundants) done
Following TS mode number                ...     0
Evaluating the initial hessian          ...  (Is done on the fly) done
Evaluating the coordinates              ...  done
Calculating the B-matrix                .... done
Calculating the G-matrix                .... done
Diagonalizing the G-matrix              .... done
The first mode is                       ....    5
The number of degrees of freedom        ....   12

    -----------------------------------------------------------------
                    Redundant Internal Coordinates


    -----------------------------------------------------------------
         Definition                    Initial Value    d2E/dq (diagonal element)
    -----------------------------------------------------------------
      1. B(Br  1,C   0)                  2.3672         0.000000   
      2. B(H   2,C   0)                  1.0792         0.000000   
      3. B(H   3,C   0)                  1.0856         0.000000   
      4. B(H   4,C   0)                  1.0792         0.000000   
      5. B(Cl  5,H   2)                  2.5700         0.000000   
      6. B(Cl  5,H   3)                  2.6325         0.000000   
      7. B(Cl  5,C   0)                  2.3797         0.000000   
      8. B(Cl  5,H   4)                  2.5329         0.000000   
      9. A(Br  1,C   0,H   3)           91.3038         0.000000   
     10. A(H   2,C   0,H   3)          124.2318         0.000000   
     11. A(Br  1,C   0,H   4)           92.0567         0.000000   
     12. A(H   2,C   0,H   4)          119.6409         0.000000   
     13. A(H   3,C   0,H   4)          115.7631         0.000000   
     14. A(H   2,C   0,Cl  5)           87.5125         0.000000   
     15. A(H   3,C   0,Cl  5)           90.9818         0.000000   
     16. A(H   4,C   0,Cl  5)           85.3967         0.000000   
     17. A(Br  1,C   0,H   2)           92.6241         0.000000   
    -----------------------------------------------------------------

Number of atoms                         .... 6
Number of degrees of freedom            .... 17

         *************************************************************
         *                GEOMETRY OPTIMIZATION CYCLE   1            *
         *************************************************************
---------------------------------
CARTESIAN COORDINATES (ANGSTROEM)
---------------------------------
  C     -4.385750    1.269520    0.011566
  Br    -2.047465    1.252802   -0.357181
  H     -4.334584    2.164378    0.612639
  H     -4.354621    0.261450    0.413229
  H     -4.591033    1.347314   -1.045064
  Cl    -6.748825    1.347966    0.281377

----------------------------
CARTESIAN COORDINATES (A.U.)
----------------------------
  NO LB      ZA    FRAG     MASS         X           Y           Z
   0 C     6.0000    0    12.011   -8.287866    2.399044    0.021857
   1 Br   35.0000    0    79.900   -3.869148    2.367454   -0.674974
   2 H     1.0000    0     1.008   -8.191177    4.090081    1.157720
   3 H     1.0000    0     1.008   -8.229041    0.494068    0.780889
   4 H     1.0000    0     1.008   -8.675795    2.546054   -1.974885
   5 Cl   17.0000    0    35.453  -12.753432    2.547286    0.531725

--------------------------------
INTERNAL COORDINATES (ANGSTROEM)
--------------------------------
 C      0   0   0     0.000000000000     0.00000000     0.00000000
 Br     1   0   0     2.367240553224     0.00000000     0.00000000
 H      1   2   0     1.079202175642    92.62409588     0.00000000
 H      1   2   3     1.085590664278    91.30376999   235.64482656
 H      1   2   3     1.079194609237    92.05665889   119.80474156
 Cl     1   2   3     2.379722441403   177.13754021    92.66986163

---------------------------
INTERNAL COORDINATES (A.U.)
---------------------------
 C      0   0   0     0.000000000000     0.00000000     0.00000000
 Br     1   0   0     4.473436338705     0.00000000     0.00000000
 H      1   2   0     2.039396555096    92.62409588     0.00000000
 H      1   2   3     2.051469049027    91.30376999   235.64482656
 H      1   2   3     2.039382256662    92.05665889   119.80474156
 Cl     1   2   3     4.497023688999   177.13754021    92.66986163

---------------------
BASIS SET INFORMATION
---------------------
There are 4 groups of distinct atoms

 Group   1 Type C   : 7s4p1d contracted to 3s2p1d pattern {511/31/1}
 Group   2 Type Br  : 14s10p6d contracted to 5s4p3d pattern {63311/5311/411}
 Group   3 Type H   : 4s1p contracted to 2s1p pattern {31/1}
 Group   4 Type Cl  : 10s7p1d contracted to 4s3p1d pattern {5311/511/1}

Atom   0C    basis set group =>   1
Atom   1Br   basis set group =>   2
Atom   2H    basis set group =>   3
Atom   3H    basis set group =>   3
Atom   4H    basis set group =>   3
Atom   5Cl   basis set group =>   4
---------------------------------
AUXILIARY/J BASIS SET INFORMATION
---------------------------------
There are 4 groups of distinct atoms

 Group   1 Type C   : 12s5p4d2f1g contracted to 6s4p3d1f1g pattern {711111/2111/211/2/1}
 Group   2 Type Br  : 19s5p5d3f1g contracted to 8s4p3d2f1g pattern {121111111/2111/311/21/1}
 Group   3 Type H   : 5s2p1d contracted to 3s1p1d pattern {311/2/1}
 Group   4 Type Cl  : 14s5p5d2f1g contracted to 8s4p3d1f1g pattern {71111111/2111/311/2/1}

Atom   0C    basis set group =>   1
Atom   1Br   basis set group =>   2
Atom   2H    basis set group =>   3
Atom   3H    basis set group =>   3
Atom   4H    basis set group =>   3
Atom   5Cl   basis set group =>   4


           ************************************************************
           *        Program running with 4 parallel MPI-processes     *
           *              working on a common directory               *
           ************************************************************
------------------------------------------------------------------------------
                           ORCA GTO INTEGRAL CALCULATION
                           -- RI-GTO INTEGRALS CHOSEN --
------------------------------------------------------------------------------
------------------------------------------------------------------------------
                   ___                                                        
                  /   \      - P O W E R E D   B Y -                         
                 /     \                                                     
                 |  |  |   _    _      __       _____    __    __             
                 |  |  |  | |  | |    /  \     |  _  \  |  |  /  |          
                  \  \/   | |  | |   /    \    | | | |  |  | /  /          
                 / \  \   | |__| |  /  /\  \   | |_| |  |  |/  /          
                |  |  |   |  __  | /  /__\  \  |    /   |      \           
                |  |  |   | |  | | |   __   |  |    \   |  |\   \          
                \     /   | |  | | |  |  |  |  | |\  \  |  | \   \       
                 \___/    |_|  |_| |__|  |__|  |_| \__\ |__|  \__/        
                                                                              
                      - O R C A' S   B I G   F R I E N D -                    
                                      &                                       
                       - I N T E G R A L  F E E D E R -                       
                                                                              
 v1 FN, 2020, v2 2021                                                         
------------------------------------------------------------------------------


Reading SHARK input file opt_TS.SHARKINP.tmp ... ok
----------------------
SHARK INTEGRAL PACKAGE
----------------------

Number of atoms                             ...      6
Number of basis functions                   ...     79
Number of shells                            ...     35
Maximum angular momentum                    ...      2
Integral batch strategy                     ... SHARK/LIBINT Hybrid
RI-J (if used) integral strategy            ... SPLIT-RIJ (Revised 2003 algorithm where possible)
Printlevel                                  ...      1
Contraction scheme used                     ... SEGMENTED contraction
Coulomb Range Separation                    ... NOT USED
Exchange Range Separation                   ... NOT USED
Finite Nucleus Model                        ... NOT USED
Auxiliary Coulomb fitting basis             ... AVAILABLE
   # of basis functions in Aux-J            ...    191
   # of shells in Aux-J                     ...     65
   Maximum angular momentum in Aux-J        ...      4
Auxiliary J/K fitting basis                 ... NOT available
Auxiliary Correlation fitting basis         ... NOT available
Auxiliary 'external' fitting basis          ... NOT available
Integral threshold                          ...     2.500000e-11
Primitive cut-off                           ...     2.500000e-12
Primitive pair pre-selection threshold      ...     2.500000e-12

Calculating pre-screening integrals         ... done (  0.0 sec) Dimension = 35
Organizing shell pair data                  ... done (  0.0 sec)
Shell pair information
Total number of shell pairs                 ...       630
Shell pairs after pre-screening             ...       577
Total number of primitive shell pairs       ...      2935
Primitive shell pairs kept                  ...      2038
          la=0 lb=0:    157 shell pairs
          la=1 lb=0:    200 shell pairs
          la=1 lb=1:     73 shell pairs
          la=2 lb=0:     80 shell pairs
          la=2 lb=1:     54 shell pairs
          la=2 lb=2:     13 shell pairs

Calculating one electron integrals          ... done (  0.0 sec)
Calculating RI/J V-Matrix + Cholesky decomp.... done (  0.0 sec)
Calculating Nuclear repulsion               ... done (  0.0 sec) ENN=    177.176937747718 Eh

SHARK setup successfully completed in   0.1 seconds

Maximum memory used throughout the entire GTOINT-calculation: 10.2 MB


           ************************************************************
           *        Program running with 4 parallel MPI-processes     *
           *              working on a common directory               *
           ************************************************************
-------------------------------------------------------------------------------
                                 ORCA SCF
-------------------------------------------------------------------------------

------------
SCF SETTINGS
------------
Hamiltonian:
 Density Functional     Method          .... DFT(GTOs)
 Exchange Functional    Exchange        .... PBE
   PBE kappa parameter   XKappa         ....  0.804000
   PBE mue parameter    XMuePBE         ....  0.219520
 Correlation Functional Correlation     .... PBE
   PBE beta parameter  CBetaPBE         ....  0.066725
 LDA part of GGA corr.  LDAOpt          .... PW91-LDA
 Gradients option       PostSCFGGA      .... off
   Density functional embedding theory  .... OFF
   NL short-range parameter             ....  6.400000
 RI-approximation to the Coulomb term is turned on
   Number of AuxJ basis functions       .... 191


General Settings:
 Integral files         IntName         .... opt_TS
 Hartree-Fock type      HFTyp           .... RHF
 Total Charge           Charge          ....   -1
 Multiplicity           Mult            ....    1
 Number of Electrons    NEL             ....   62
 Basis Dimension        Dim             ....   79
 Nuclear Repulsion      ENuc            ....    177.1769377477 Eh

Convergence Acceleration:
 DIIS                   CNVDIIS         .... on
   Start iteration      DIISMaxIt       ....     0
   Startup error        DIISStart       ....  0.200000
   # of expansion vecs  DIISMaxEq       ....     5
   Bias factor          DIISBfac        ....   1.050
   Max. coefficient     DIISMaxC        ....  10.000
 Trust-Rad. Augm. Hess. CNVTRAH         .... auto
   Auto Start mean grad. ratio tolernc. ....  1.125000
   Auto Start start iteration           ....    20
   Auto Start num. interpolation iter.  ....    10
   Max. Number of Micro iterations      ....    16
   Max. Number of Macro iterations      .... Maxiter - #DIIS iter
   Number of Davidson start vectors     ....     2
   Converg. threshold I  (grad. norm)   ....   1.000e-05
   Converg. threshold II (energy diff.) ....   1.000e-08
   Grad. Scal. Fac. for Micro threshold ....   0.100
   Minimum threshold for Micro iter.    ....   0.010
   NR start threshold (gradient norm)   ....   0.001
   Initial trust radius                 ....   0.400
   Minimum AH scaling param. (alpha)    ....   1.000
   Maximum AH scaling param. (alpha)    .... 1000.000
   Orbital update algorithm             .... Taylor
   White noise on init. David. guess    .... on
   Maximum white noise                  ....   0.010
   Quad. conv. algorithm                .... NR
 SOSCF                  CNVSOSCF        .... on
   Start iteration      SOSCFMaxIt      ....   150
   Startup grad/error   SOSCFStart      ....  0.001000
 Level Shifting         CNVShift        .... on
   Level shift para.    LevelShift      ....    0.2500
   Turn off err/grad.   ShiftErr        ....    0.0000
 Zerner damping         CNVZerner       .... off
 Static damping         CNVDamp         .... on
   Fraction old density DampFac         ....    0.8500
   Max. Damping (<1)    DampMax         ....    0.9800
   Min. Damping (>=0)   DampMin         ....    0.0000
   Turn off err/grad.   DampErr         ....    0.0300
 Fernandez-Rico         CNVRico         .... off

SCF Procedure:
 Maximum # iterations   MaxIter         ....   125
 SCF integral mode      SCFMode         .... Direct
   Integral package                     .... SHARK and LIBINT hybrid scheme
 Reset frequency        DirectResetFreq ....    20
 Integral Threshold     Thresh          ....  2.500e-11 Eh
 Primitive CutOff       TCut            ....  2.500e-12 Eh

Convergence Tolerance:
 Convergence Check Mode ConvCheckMode   .... Total+1el-Energy
 Convergence forced     ConvForced      .... 0
 Energy Change          TolE            ....  1.000e-08 Eh
 1-El. energy change                    ....  1.000e-05 Eh
 Orbital Gradient       TolG            ....  1.000e-05
 Orbital Rotation angle TolX            ....  1.000e-05
 DIIS Error             TolErr          ....  5.000e-07


Diagonalization of the overlap matrix:
Smallest eigenvalue                        ... 1.377e-02
Time for diagonalization                   ...    0.001 sec
Threshold for overlap eigenvalues          ... 1.000e-08
Number of eigenvalues below threshold      ... 0
Time for construction of square roots      ...    0.001 sec
Total time needed                          ...    0.002 sec

Time for model grid setup =    0.038 sec

------------------------------
INITIAL GUESS: MODEL POTENTIAL
------------------------------
Loading Hartree-Fock densities                     ... done
Calculating cut-offs                               ... done
Initializing the effective Hamiltonian             ... done
Setting up the integral package (SHARK)            ... done
Starting the Coulomb interaction                   ... done (   0.0 sec)
Reading the grid                                   ... done
Mapping shells                                     ... done
Starting the XC term evaluation                    ... done (   0.0 sec)
  promolecular density results
     # of electrons  =     60.998286583
     EX              =   -122.563780883
     EC              =     -2.643189822
     EX+EC           =   -125.206970705
Transforming the Hamiltonian                       ... done (   0.0 sec)
Diagonalizing the Hamiltonian                      ... done (   0.0 sec)
Back transforming the eigenvectors                 ... done (   0.0 sec)
Now organizing SCF variables                       ... done
                      ------------------
                      INITIAL GUESS DONE (   0.1 sec)
                      ------------------
-------------------
DFT GRID GENERATION
-------------------

General Integration Accuracy     IntAcc      ... 4.388
Radial Grid Type                 RadialGrid  ... OptM3 with GC (2021)
Angular Grid (max. ang.)         AngularGrid ... 4 (Lebedev-302)
Angular grid pruning method      GridPruning ... 4 (adaptive)
Weight generation scheme         WeightScheme... Becke
Basis function cutoff            BFCut       ... 1.0000e-11
Integration weight cutoff        WCut        ... 1.0000e-14
Angular grids for H and He will be reduced by one unit
Partially contracted basis set               ... off
Rotationally invariant grid construction     ... off

Total number of grid points                  ...    34587
Total number of batches                      ...      545
Average number of points per batch           ...       63
Average number of grid points per atom       ...     5764
Time for grid setup =    0.239 sec

--------------
SCF ITERATIONS
--------------
ITER       Energy         Delta-E        Max-DP      RMS-DP      [F,P]     Damp
               ***  Starting incremental Fock matrix formation  ***
  0  -3073.1348865479   0.000000000000 0.04655963  0.00151446  0.1129216 0.8500
  1  -3073.1493044232  -0.014417875308 0.04229421  0.00152298  0.0874440 0.8500
                               ***Turning on DIIS***
  2  -3073.1595138756  -0.010209452400 0.03109871  0.00124104  0.0626194 0.8500
  3  -3073.1661462647  -0.006632389035 0.01918569  0.00078817  0.0432540 0.8500
  4  -3073.1708600588  -0.004713794173 0.01493324  0.00052364  0.0325202 0.8500
  5  -3073.1744255313  -0.003565472480 0.07350015  0.00242919  0.0262640 0.0000
  6  -3073.1919009687  -0.017475437364 0.02048325  0.00049638  0.0061581 0.0000
  7  -3073.1920248493  -0.000123880639 0.00174129  0.00008201  0.0023887 0.0000
                      *** Initiating the SOSCF procedure ***
                           *** Shutting down DIIS ***
                      *** Re-Reading the Fockian *** 
                      *** Removing any level shift *** 
ITER      Energy       Delta-E        Grad      Rot      Max-DP    RMS-DP
  8  -3073.19203974  -0.0000148921  0.000437  0.000437  0.001045  0.000041
               *** Restarting incremental Fock matrix formation ***
  9  -3073.19204176  -0.0000020178  0.000080  0.000087  0.000394  0.000017
 10  -3073.19204184  -0.0000000769  0.000075  0.000251  0.000307  0.000010
 11  -3073.19204186  -0.0000000204  0.000062  0.000172  0.000243  0.000007
 12  -3073.19204189  -0.0000000377  0.000025  0.000009  0.000060  0.000002
 13  -3073.19204190  -0.0000000017  0.000010  0.000021  0.000029  0.000001
 14  -3073.19204190  -0.0000000036  0.000003  0.000014  0.000016  0.000000
 15  -3073.19204190  -0.0000000001  0.000003  0.000005  0.000010  0.000000
                  ***Gradient check signals convergence***
              ***Rediagonalizing the Fockian in SOSCF/NRSCF***

               *****************************************************
               *                     SUCCESS                       *
               *           SCF CONVERGED AFTER  16 CYCLES          *
               *****************************************************


----------------
TOTAL SCF ENERGY
----------------

Total Energy       :        -3073.19204190 Eh          -83625.80691 eV

Components:
Nuclear Repulsion  :          177.17693775 Eh            4821.22958 eV
Electronic Energy  :        -3250.36897965 Eh          -88447.03650 eV
One Electron Energy:        -4637.99568360 Eh         -126206.27875 eV
Two Electron Energy:         1387.62670395 Eh           37759.24226 eV

Virial components:
Potential Energy   :        -6142.14342342 Eh         -167136.21959 eV
Kinetic Energy     :         3068.95138152 Eh           83510.41268 eV
Virial Ratio       :            2.00138179


DFT components:
N(Alpha)           :       31.000001950544 electrons
N(Beta)            :       31.000001950544 electrons
N(Total)           :       62.000003901088 electrons
E(X)               :     -123.002011205642 Eh       
E(C)               :       -2.693646921316 Eh       
E(XC)              :     -125.695658126958 Eh       
DFET-embed. en.    :        0.000000000000 Eh       

---------------
SCF CONVERGENCE
---------------

  Last Energy change         ...   -6.9986e-10  Tolerance :   1.0000e-08
  Last MAX-Density change    ...    5.4699e-06  Tolerance :   1.0000e-07
  Last RMS-Density change    ...    1.4933e-07  Tolerance :   5.0000e-09
  Last Orbital Gradient      ...    5.2794e-07  Tolerance :   1.0000e-05
  Last Orbital Rotation      ...    1.4050e-06  Tolerance :   1.0000e-05

             **** THE GBW FILE WAS UPDATED (opt_TS.gbw) ****
             **** DENSITY opt_TS.scfp WAS UPDATED ****
             **** ENERGY FILE WAS UPDATED (opt_TS.en.tmp) ****
             **** THE GBW FILE WAS UPDATED (opt_TS.gbw) ****
             **** DENSITY opt_TS.scfp WAS UPDATED ****
----------------
ORBITAL ENERGIES
----------------

  NO   OCC          E(Eh)            E(eV) 
   0   2.0000    -480.698054    -13080.4590 
   1   2.0000    -100.358956     -2730.9060 
   2   2.0000     -61.539890     -1674.5855 
   3   2.0000     -55.469631     -1509.4054 
   4   2.0000     -55.467947     -1509.3596 
   5   2.0000     -55.467935     -1509.3593 
   6   2.0000      -9.775104      -265.9941 
   7   2.0000      -8.891488      -241.9497 
   8   2.0000      -8.163957      -222.1526 
   9   2.0000      -6.719427      -182.8449 
  10   2.0000      -6.713638      -182.6874 
  11   2.0000      -6.713608      -182.6866 
  12   2.0000      -6.041259      -164.3910 
  13   2.0000      -6.033875      -164.1901 
  14   2.0000      -6.033839      -164.1891 
  15   2.0000      -2.243425       -61.0467 
  16   2.0000      -2.241635       -60.9980 
  17   2.0000      -2.241608       -60.9972 
  18   2.0000      -2.236094       -60.8472 
  19   2.0000      -2.236093       -60.8472 
  20   2.0000      -0.490465       -13.3462 
  21   2.0000      -0.454960       -12.3801 
  22   2.0000      -0.408539       -11.1169 
  23   2.0000      -0.224803        -6.1172 
  24   2.0000      -0.211938        -5.7671 
  25   2.0000      -0.111071        -3.0224 
  26   2.0000      -0.037681        -1.0253 
  27   2.0000      -0.037306        -1.0151 
  28   2.0000      -0.020864        -0.5677 
  29   2.0000      -0.018157        -0.4941 
  30   2.0000      -0.017543        -0.4774 
  31   0.0000       0.126619         3.4455 
  32   0.0000       0.205861         5.6018 
  33   0.0000       0.270315         7.3556 
  34   0.0000       0.273398         7.4395 
  35   0.0000       0.499135        13.5821 
  36   0.0000       0.536947        14.6111 
  37   0.0000       0.556216        15.1354 
  38   0.0000       0.622589        16.9415 
  39   0.0000       0.670884        18.2557 
  40   0.0000       0.702551        19.1174 
  41   0.0000       0.703682        19.1482 
  42   0.0000       0.719659        19.5829 
  43   0.0000       0.727000        19.7827 
  44   0.0000       0.743456        20.2305 
  45   0.0000       0.779613        21.2144 
  46   0.0000       0.781778        21.2733 
  47   0.0000       0.795646        21.6506 
  48   0.0000       0.805936        21.9306 
  49   0.0000       0.807422        21.9711 
  50   0.0000       0.882740        24.0206 
  51   0.0000       0.986932        26.8558 
  52   0.0000       0.987228        26.8638 
  53   0.0000       0.990738        26.9594 
  54   0.0000       0.992340        27.0029 
  55   0.0000       1.054477        28.6938 
  56   0.0000       1.075096        29.2548 
  57   0.0000       1.078665        29.3520 
  58   0.0000       1.166389        31.7391 
  59   0.0000       1.339930        36.4614 
  60   0.0000       1.352677        36.8082 
  61   0.0000       1.413335        38.4588 
  62   0.0000       1.566905        42.6377 
  63   0.0000       1.749546        47.6076 
  64   0.0000       1.773860        48.2692 
  65   0.0000       1.964006        53.4433 
  66   0.0000       2.178783        59.2877 
  67   0.0000       2.263879        61.6033 
  68   0.0000       2.306007        62.7496 
  69   0.0000       2.325270        63.2738 
  70   0.0000       2.372589        64.5614 
  71   0.0000       2.916573        79.3640 
  72   0.0000       2.978671        81.0538 
  73   0.0000       3.028143        82.4000 
  74   0.0000       3.542808        96.4047 
  75   0.0000       3.543620        96.4268 
  76   0.0000       3.566712        97.0552 
  77   0.0000       3.568648        97.1078 
  78   0.0000       3.793543       103.2276 

                    ********************************
                    * MULLIKEN POPULATION ANALYSIS *
                    ********************************

-----------------------
MULLIKEN ATOMIC CHARGES
-----------------------
   0 C :   -0.033990
   1 Br:   -0.582260
   2 H :    0.075476
   3 H :    0.070759
   4 H :    0.068995
   5 Cl:   -0.598980
Sum of atomic charges:   -1.0000000

--------------------------------
MULLIKEN REDUCED ORBITAL CHARGES
--------------------------------
  0 C s       :     3.192459  s :     3.192459
      pz      :     1.023152  p :     2.820814
      px      :     0.791930
      py      :     1.005731
      dz2     :     0.005988  d :     0.020717
      dxz     :     0.001524
      dyz     :     0.004717
      dx2y2   :     0.007533
      dxy     :     0.000956
  1 Brs       :     7.985059  s :     7.985059
      pz      :     5.984354  p :    17.582635
      px      :     5.603867
      py      :     5.994415
      dz2     :     2.002093  d :    10.014567
      dxz     :     2.003132
      dyz     :     2.000160
      dx2y2   :     2.006662
      dxy     :     2.002521
  2 H s       :     0.899964  s :     0.899964
      pz      :     0.007864  p :     0.024560
      px      :     0.005666
      py      :     0.011029
  3 H s       :     0.905049  s :     0.905049
      pz      :     0.006321  p :     0.024192
      px      :     0.005464
      py      :     0.012407
  4 H s       :     0.906257  s :     0.906257
      pz      :     0.013409  p :     0.024748
      px      :     0.006292
      py      :     0.005046
  5 Cls       :     5.984489  s :     5.984489
      pz      :     3.984144  p :    11.610298
      px      :     3.638122
      py      :     3.988031
      dz2     :     0.000707  d :     0.004193
      dxz     :     0.000774
      dyz     :     0.000000
      dx2y2   :     0.002100
      dxy     :     0.000612


                     *******************************
                     * LOEWDIN POPULATION ANALYSIS *
                     *******************************

----------------------
LOEWDIN ATOMIC CHARGES
----------------------
   0 C :   -0.061860
   1 Br:   -0.468016
   2 H :    0.015556
   3 H :    0.016994
   4 H :    0.013005
   5 Cl:   -0.515679

-------------------------------
LOEWDIN REDUCED ORBITAL CHARGES
-------------------------------
  0 C s       :     2.975996  s :     2.975996
      pz      :     1.094117  p :     3.035395
      px      :     0.854363
      py      :     1.086915
      dz2     :     0.015037  d :     0.050468
      dxz     :     0.003151
      dyz     :     0.013107
      dx2y2   :     0.017559
      dxy     :     0.001615
  1 Brs       :     7.936302  s :     7.936302
      pz      :     5.974415  p :    17.515401
      px      :     5.556251
      py      :     5.984736
      dz2     :     2.002566  d :    10.016313
      dxz     :     2.003068
      dyz     :     2.000159
      dx2y2   :     2.008342
      dxy     :     2.002177
  2 H s       :     0.909490  s :     0.909490
      pz      :     0.023140  p :     0.074954
      px      :     0.015519
      py      :     0.036295
  3 H s       :     0.909887  s :     0.909887
      pz      :     0.016690  p :     0.073119
      px      :     0.014908
      py      :     0.041521
  4 H s       :     0.911926  s :     0.911926
      pz      :     0.045480  p :     0.075070
      px      :     0.017641
      py      :     0.011948
  5 Cls       :     5.943544  s :     5.943544
      pz      :     3.978505  p :    11.568403
      px      :     3.607061
      py      :     3.982836
      dz2     :     0.000665  d :     0.003732
      dxz     :     0.000633
      dyz     :     0.000000
      dx2y2   :     0.001962
      dxy     :     0.000472


                      *****************************
                      * MAYER POPULATION ANALYSIS *
                      *****************************

  NA   - Mulliken gross atomic population
  ZA   - Total nuclear charge
  QA   - Mulliken gross atomic charge
  VA   - Mayer's total valence
  BVA  - Mayer's bonded valence
  FA   - Mayer's free valence

  ATOM       NA         ZA         QA         VA         BVA        FA
  0 C      6.0340     6.0000    -0.0340     3.8875     3.8875    -0.0000
  1 Br    35.5823    35.0000    -0.5823     0.6924     0.6924     0.0000
  2 H      0.9245     1.0000     0.0755     1.0118     1.0118    -0.0000
  3 H      0.9292     1.0000     0.0708     1.0086     1.0086    -0.0000
  4 H      0.9310     1.0000     0.0690     1.0164     1.0164     0.0000
  5 Cl    17.5990    17.0000    -0.5990     0.6637     0.6637    -0.0000

  Mayer bond orders larger than 0.100000
B(  0-C ,  1-Br) :   0.5064 B(  0-C ,  2-H ) :   0.9805 B(  0-C ,  3-H ) :   0.9823 
B(  0-C ,  4-H ) :   0.9821 B(  0-C ,  5-Cl) :   0.4362 B(  1-Br,  5-Cl) :   0.1538 


-------
TIMINGS
-------

Total SCF time: 0 days 0 hours 0 min 2 sec 

Total time                  ....       2.029 sec
Sum of individual times     ....       1.930 sec  ( 95.1%)

Fock matrix formation       ....       1.500 sec  ( 73.9%)
  Split-RI-J                ....       0.361 sec  ( 24.0% of F)
  XC integration            ....       1.107 sec  ( 73.8% of F)
    Basis function eval.    ....       0.290 sec  ( 26.2% of XC)
    Density eval.           ....       0.210 sec  ( 19.0% of XC)
    XC-Functional eval.     ....       0.124 sec  ( 11.2% of XC)
    XC-Potential eval.      ....       0.152 sec  ( 13.7% of XC)
Diagonalization             ....       0.023 sec  (  1.1%)
Density matrix formation    ....       0.002 sec  (  0.1%)
Population analysis         ....       0.005 sec  (  0.2%)
Initial guess               ....       0.029 sec  (  1.4%)
Orbital Transformation      ....       0.000 sec  (  0.0%)
Orbital Orthonormalization  ....       0.000 sec  (  0.0%)
DIIS solution               ....       0.049 sec  (  2.4%)
SOSCF solution              ....       0.044 sec  (  2.2%)
Grid generation             ....       0.277 sec  ( 13.7%)

Maximum memory used throughout the entire SCF-calculation: 13.2 MB


-------------------------------------------------------------------------------
                          DFT DISPERSION CORRECTION                            
                                                                               
                              DFTD3 V3.1  Rev 1                                
                          USING Becke-Johnson damping                          
-------------------------------------------------------------------------------
The PBE functional is recognized
Active option DFTDOPT                   ...         4   

molecular C6(AA) [au] = 1029.351977 


            DFT-D V3
 parameters
 s6 scaling factor         :     1.0000 
 a1 scaling factor         :     0.4289 
 s8 scaling factor         :     0.7875 
 a2 scaling factor         :     4.4407 
 ad hoc parameters k1-k3   :    16.0000     1.3333    -4.0000 

 Edisp/kcal,au: -2.497306026556  -0.003979710050 
 E6   /kcal   :  -1.669383489 
 E8   /kcal   :  -0.827922537 
 % E8         :  33.152626400 

-------------------------   ----------------
Dispersion correction           -0.003979710
-------------------------   ----------------


-------------------------   --------------------
FINAL SINGLE POINT ENERGY     -3073.196021610308
-------------------------   --------------------



           ************************************************************
           *        Program running with 4 parallel MPI-processes     *
           *              working on a common directory               *
           ************************************************************
------------------------------------------------------------------------------
                         ORCA SCF GRADIENT CALCULATION
------------------------------------------------------------------------------

Gradient of the Kohn-Sham DFT energy:
Kohn-Sham wavefunction type      ... RKS
Hartree-Fock exchange scaling    ...    0.000
Number of operators              ...    1
Number of atoms                  ...    6
Basis set dimensions             ...   79
Integral neglect threshold       ... 2.5e-11
Integral primitive cutoff        ... 2.5e-12
SHARK Integral package           ... ON

Nuc. rep. gradient       (SHARK) ... done (  0.0 sec)
HCore & Overlap gradient (SHARK) ... done (  0.0 sec)
RI-J gradient            (SHARK) ... done (  0.2 sec)
Exchange-correlation gradient    ... done
Dispersion correction            ... done

------------------
CARTESIAN GRADIENT
------------------

   1   C   :    0.002822064    0.005623752    0.006176082
   2   Br  :   -0.009247038   -0.000024247    0.001053906
   3   H   :    0.000463445   -0.003535092   -0.006296010
   4   H   :    0.002106978    0.000572888   -0.006990961
   5   H   :    0.001609852   -0.003363707    0.007330537
   6   Cl  :    0.002244699    0.000726406   -0.001273555

Difference to translation invariance:
           :    0.0000000002   -0.0000000003    0.0000000000

Difference to rotation invariance:
           :    0.0000032200    0.0000190048    0.0000143233

Norm of the cartesian gradient     ...    0.0185789485
RMS gradient                       ...    0.0043791001
MAX gradient                       ...    0.0092470377

-------
TIMINGS
-------

Total SCF gradient time            ...        0.533 sec

One electron gradient       ....       0.014 sec  (  2.6%)
RI-J Coulomb gradient       ....       0.161 sec  ( 30.1%)
XC gradient                 ....       0.213 sec  ( 39.9%)

Maximum memory used throughout the entire SCFGRAD-calculation: 26.1 MB


           ************************************************************
           *        Program running with 4 parallel MPI-processes     *
           *              working on a common directory               *
           ************************************************************

-------------------------------------------------------------------------------
                               ORCA SCF HESSIAN
-------------------------------------------------------------------------------

                   --------- SHARK INITIALIZATION DONE ---------

Hessian of the Kohn-Sham DFT energy:
Kohn-Sham wavefunction type                      ... RKS
Hartree-Fock exchange scaling                    ...    0.000
Number of operators                              ...    1
Number of atoms                                  ...    6
Basis set dimensions                             ...   79
Integral neglect threshold                       ... 2.5e-11
Integral primitive cutoff                        ... 2.5e-12

Setting up DFT Hessian calculations              ... 

HESS GRID
---------

General Integration Accuracy     IntAcc      ... 4.629
Radial Grid Type                 RadialGrid  ... OptM3 with GC (2021)
Angular Grid (max. ang.)         AngularGrid ... 5 (Lebedev-434)
Angular grid pruning method      GridPruning ... 4 (adaptive)
Weight generation scheme         WeightScheme... Becke
Basis function cutoff            BFCut       ... 1.0000e-11
Integration weight cutoff        WCut        ... 1.0000e-14
Angular grids for H and He will be reduced by one unit
Partially contracted basis set               ... off
Rotationally invariant grid construction     ... off

Total number of grid points                  ...    53650
Total number of batches                      ...      841
Average number of points per batch           ...       63
Average number of grid points per atom       ...     8942

Building densities                               ... done   (      0.0 sec)
Calculating rho(r) on the grid                   ... done   (      0.1 sec)
Building xc-kernel on the grid                   ... done   (      0.0 sec)
                                                     done   (      0.8 sec)

Nuclear repulsion Hessian  (SHARK)               ... done   (      0.0 sec)

----------------------------------------------
Forming right-hand sides of CP-SCF equations     ...
----------------------------------------------
One electron integral derivatives  (SHARK)       ... done   (      0.0 sec)
Transforming the overlap derivative matrices     ... done   (      0.0 sec)
Making the Q(x) pseudodensities                  ... done   (      0.0 sec)
Adding the E*S(x)*S(y) terms to the Hessian      ... done   (      0.0 sec)
Calculating energy weighted overlap derivatives  ... done   (      0.0 sec)
Two electron integral derivatives (SHARK-RI)     ... done   (      0.3 sec)
Exchange-correlation integral derivatives        ... done   (      2.7 sec)
tr(F(y)Q(x)) contribution to the Hessian         ... done   (      0.0 sec)
Response fock operator R(S(x)) (SHARK-RI)        ... done   (      0.2 sec)
XC Response fock operator R(S(x))                ... done   (      0.6 sec)
tr(F(y)S(x)) contribution to the Hessian         ... done   (      0.0 sec)
Transforming and finalizing RHSs                 ... done   (      0.0 sec)

----------------------------------------------
Solving the CP-SCF equations (RI)                ...
----------------------------------------------
     CP-SCF ITERATION   0:   1.2578e-01 (   0.1 sec   0/ 18 done)
     CP-SCF ITERATION   1:   1.0179e-01 (   0.1 sec   0/ 18 done)
     CP-SCF ITERATION   2:   1.8831e-02 (   0.1 sec   0/ 18 done)
     CP-SCF ITERATION   3:   7.6657e-03 (   0.1 sec   0/ 18 done)
     CP-SCF ITERATION   4:   1.9757e-03 (   0.1 sec   1/ 18 done)
     CP-SCF ITERATION   5:   6.4730e-04 (   0.1 sec   4/ 18 done)
     CP-SCF ITERATION   6:   2.4271e-04 (   0.1 sec  16/ 18 done)
     CP-SCF ITERATION   7:   6.5318e-05 (   0.0 sec  18/ 18 done)
                    *** THE CP-SCF HAS CONVERGED ***

                                                 ... done   (      1.0 sec)
Forming perturbed density Hessian contributions  ... done   (      0.0 sec)
2nd integral derivative contribs (SHARK-RI)      ... done   (      0.9 sec)
Exchange-correlation Hessian                     ... done   (      2.7 sec)
Dispersion correction in the Hessian             ... done   (      0.4 sec)
Dipole derivatives                               ... (center of mass: -6.796137,  2.419476 -0.267304)done   (      0.1 sec)

Total SCF Hessian time: 0 days 0 hours 0 min 10 sec 

Writing the Hessian file to the disk             ... done


Maximum memory used throughout the entire SCFHESS-calculation: 56.1 MB

-----------------------
VIBRATIONAL FREQUENCIES
-----------------------

Scaling factor for frequencies =  1.000000000  (already applied!)

   0:         0.00 cm**-1
   1:         0.00 cm**-1
   2:         0.00 cm**-1
   3:         0.00 cm**-1
   4:         0.00 cm**-1
   5:         0.00 cm**-1
   6:      -340.68 cm**-1 ***imaginary mode***
   7:       164.61 cm**-1
   8:       168.25 cm**-1
   9:       187.19 cm**-1
  10:       786.43 cm**-1
  11:       805.81 cm**-1
  12:       847.31 cm**-1
  13:      1252.61 cm**-1
  14:      1310.75 cm**-1
  15:      3181.82 cm**-1
  16:      3385.89 cm**-1
  17:      3432.31 cm**-1


------------
NORMAL MODES
------------

These modes are the Cartesian displacements weighted by the diagonal matrix
M(i,i)=1/sqrt(m[i]) where m[i] is the mass of the displaced atom
Thus, these vectors are normalized but *not* orthogonal

                  0          1          2          3          4          5    
      0       0.000000   0.000000   0.000000   0.000000   0.000000   0.000000
      1       0.000000   0.000000   0.000000   0.000000   0.000000   0.000000
      2       0.000000   0.000000   0.000000   0.000000   0.000000   0.000000
      3       0.000000   0.000000   0.000000   0.000000   0.000000   0.000000
      4       0.000000   0.000000   0.000000   0.000000   0.000000   0.000000
      5       0.000000   0.000000   0.000000   0.000000   0.000000   0.000000
      6       0.000000   0.000000   0.000000   0.000000   0.000000   0.000000
      7       0.000000   0.000000   0.000000   0.000000   0.000000   0.000000
      8       0.000000   0.000000   0.000000   0.000000   0.000000   0.000000
      9       0.000000   0.000000   0.000000   0.000000   0.000000   0.000000
     10       0.000000   0.000000   0.000000   0.000000   0.000000   0.000000
     11       0.000000   0.000000   0.000000   0.000000   0.000000   0.000000
     12       0.000000   0.000000   0.000000   0.000000   0.000000   0.000000
     13       0.000000   0.000000   0.000000   0.000000   0.000000   0.000000
     14       0.000000   0.000000   0.000000   0.000000   0.000000   0.000000
     15       0.000000   0.000000   0.000000   0.000000   0.000000   0.000000
     16       0.000000   0.000000   0.000000   0.000000   0.000000   0.000000
     17       0.000000   0.000000   0.000000   0.000000   0.000000   0.000000
                  6          7          8          9         10         11    
      0      -0.898034   0.031596   0.047790  -0.202293  -0.002524  -0.014745
      1       0.034331   0.468448  -0.089218  -0.056389   0.002521   0.015790
      2       0.107614   0.082629   0.475306   0.037482   0.015703  -0.002447
      3       0.064453   0.002242  -0.006717   0.400859   0.002978   0.003867
      4      -0.002049  -0.044194   0.008420  -0.002353  -0.000678  -0.004146
      5      -0.008505  -0.008457  -0.044439  -0.055637  -0.004519   0.000319
      6       0.285723   0.064856   0.092521  -0.183012  -0.690472  -0.670599
      7       0.064961   0.414747  -0.121953  -0.046126   0.007026  -0.020770
      8      -0.047570   0.174187   0.526549   0.031164   0.068515   0.109128
      9       0.099976  -0.038206   0.089274  -0.114531  -0.356382   0.597863
     10       0.011116   0.437192  -0.112138  -0.059535  -0.002809  -0.002609
     11      -0.032726  -0.010138   0.429746   0.042430   0.029018  -0.089306
     12       0.212139   0.016889   0.032296  -0.210846   0.615629  -0.407939
     13       0.042178   0.592722  -0.036267  -0.065382  -0.011853  -0.025717
     14      -0.100187   0.096138   0.492596   0.030507  -0.105593   0.069415
     15       0.141986  -0.016996  -0.007140  -0.820422   0.006404   0.009947
     16      -0.010376  -0.100178   0.018936   0.029269   0.000891   0.005389
     17      -0.012159  -0.016333  -0.102070   0.109730   0.005094  -0.002427
                 12         13         14         15         16         17    
      0      -0.011011   0.012415   0.005838   0.003447  -0.011171  -0.011257
      1      -0.003178  -0.038748   0.082460   0.011932   0.074541  -0.070862
      2      -0.002794   0.085550   0.037260  -0.006999  -0.065911  -0.074605
      3       0.011591   0.000035   0.000034  -0.000124   0.000038   0.000021
      4       0.001509   0.000016  -0.000065  -0.000009  -0.000079   0.000081
      5      -0.000945  -0.000018  -0.000012   0.000020   0.000091   0.000094
      6      -0.215589  -0.085585   0.064058   0.028358  -0.014000   0.038149
      7      -0.009741   0.459466  -0.018473   0.447816  -0.206842   0.663413
      8       0.027941  -0.640722   0.166304   0.303664  -0.149872   0.445692
      9      -0.708983  -0.035872  -0.109950   0.021145   0.017292  -0.008105
     10       0.018239  -0.258071  -0.181999  -0.629254  -0.627081   0.218856
     11       0.105430  -0.465958  -0.572470   0.260333   0.248872  -0.099023
     12      -0.650645  -0.030454  -0.018728  -0.090160   0.128969   0.101656
     13       0.011375   0.255313  -0.765181   0.041976  -0.041133  -0.051117
     14       0.119454   0.104646  -0.029814  -0.481840   0.671373   0.527595
     15       0.022395   0.000034  -0.000218   0.000267  -0.000062   0.000023
     16      -0.002889   0.000106  -0.000333  -0.000058  -0.000195   0.000193
     17      -0.004112  -0.000453  -0.000199  -0.000009   0.000222   0.000205


-----------
IR SPECTRUM
-----------

 Mode   freq       eps      Int      T**2         TX        TY        TZ
       cm**-1   L/(mol*cm) km/mol    a.u.
----------------------------------------------------------------------------
  7:    164.61   0.001262    6.38  0.002393  ( 0.014796  0.046105  0.006928)
  8:    168.25   0.001267    6.40  0.002350  (-0.008358 -0.007754  0.047114)
  9:    187.19   0.000231    1.17  0.000385  ( 0.019363 -0.002158 -0.002283)
 10:    786.43   0.000239    1.21  0.000095  ( 0.006747 -0.001624 -0.006834)
 11:    805.81   0.000051    0.26  0.000020  ( 0.001032 -0.004192  0.001089)
 12:    847.31   0.002129   10.76  0.000784  ( 0.027953 -0.000351 -0.001674)
 13:   1252.61   0.001100    5.56  0.000274  (-0.001804  0.005853 -0.015380)
 14:   1310.75   0.000622    3.14  0.000148  (-0.001004 -0.010589 -0.005911)
 15:   3181.82   0.000005    0.03  0.000000  ( 0.000071  0.000308  0.000632)
 16:   3385.89   0.000223    1.13  0.000021  ( 0.000821 -0.003894  0.002179)
 17:   3432.31   0.000539    2.72  0.000049  ( 0.000775  0.005319  0.004481)

* The epsilon (eps) is given for a Dirac delta lineshape.
** The dipole moment derivative (T) already includes vibrational overlap.

The first frequency considered to be a vibration is 7
The total number of vibrations considered is 11


--------------------------
THERMOCHEMISTRY AT 298.15K
--------------------------

Temperature         ... 298.15 K
Pressure            ... 1.00 atm
Total Mass          ... 130.39 AMU

Throughout the following assumptions are being made:
  (1) The electronic state is orbitally nondegenerate
  (2) There are no thermally accessible electronically excited states
  (3) Hindered rotations indicated by low frequency modes are not
      treated as such but are treated as vibrations and this may
      cause some error
  (4) All equations used are the standard statistical mechanics
      equations for an ideal gas
  (5) All vibrations are strictly harmonic

freq.     164.61  E(vib)   ...       0.39 
freq.     168.25  E(vib)   ...       0.38 
freq.     187.19  E(vib)   ...       0.36 
freq.     786.43  E(vib)   ...       0.05 
freq.     805.81  E(vib)   ...       0.05 
freq.     847.31  E(vib)   ...       0.04 
freq.    1252.61  E(vib)   ...       0.01 
freq.    1310.75  E(vib)   ...       0.01 
freq.    3181.82  E(vib)   ...       0.00 
freq.    3385.89  E(vib)   ...       0.00 
freq.    3432.31  E(vib)   ...       0.00 

------------
INNER ENERGY
------------

The inner energy is: U= E(el) + E(ZPE) + E(vib) + E(rot) + E(trans)
    E(el)   - is the total energy from the electronic structure calculation
              = E(kin-el) + E(nuc-el) + E(el-el) + E(nuc-nuc)
    E(ZPE)  - the the zero temperature vibrational energy from the frequency calculation
    E(vib)  - the the finite temperature correction to E(ZPE) due to population
              of excited vibrational states
    E(rot)  - is the rotational thermal energy
    E(trans)- is the translational thermal energy

Summary of contributions to the inner energy U:
Electronic energy                ...  -3073.19602161 Eh
Zero point energy                ...      0.03536393 Eh      22.19 kcal/mol
Thermal vibrational correction   ...      0.00206091 Eh       1.29 kcal/mol
Thermal rotational correction    ...      0.00141627 Eh       0.89 kcal/mol
Thermal translational correction ...      0.00141627 Eh       0.89 kcal/mol
-----------------------------------------------------------------------
Total thermal energy                  -3073.15576422 Eh


Summary of corrections to the electronic energy:
(perhaps to be used in another calculation)
Total thermal correction                  0.00489346 Eh       3.07 kcal/mol
Non-thermal (ZPE) correction              0.03536393 Eh      22.19 kcal/mol
-----------------------------------------------------------------------
Total correction                          0.04025739 Eh      25.26 kcal/mol


--------
ENTHALPY
--------

The enthalpy is H = U + kB*T
                kB is Boltzmann's constant
Total free energy                 ...  -3073.15576422 Eh 
Thermal Enthalpy correction       ...      0.00094421 Eh       0.59 kcal/mol
-----------------------------------------------------------------------
Total Enthalpy                    ...  -3073.15482001 Eh


Note: Only C1 symmetry has been detected, increase convergence thresholds 
      if your molecule has a higher symmetry. Symmetry factor of 1.0 is   
      used for the rotational entropy correction. 
 

Note: Rotational entropy computed according to Herzberg 
Infrared and Raman Spectra, Chapter V,1, Van Nostrand Reinhold, 1945 
Point Group:  C1, Symmetry Number:   1  
Rotational constants in cm-1:     4.720287     0.029790     0.029783 

Vibrational entropy computed according to the QRRHO of S. Grimme
Chem.Eur.J. 2012 18 9955


-------
ENTROPY
-------

The entropy contributions are T*S = T*(S(el)+S(vib)+S(rot)+S(trans))
     S(el)   - electronic entropy
     S(vib)  - vibrational entropy
     S(rot)  - rotational entropy
     S(trans)- translational entropy
The entropies will be listed as multiplied by the temperature to get
units of energy

Electronic entropy                ...      0.00000000 Eh      0.00 kcal/mol
Vibrational entropy               ...      0.00371974 Eh      2.33 kcal/mol
Rotational entropy                ...      0.01209576 Eh      7.59 kcal/mol
Translational entropy             ...      0.01924704 Eh     12.08 kcal/mol
-----------------------------------------------------------------------
Final entropy term                ...      0.03506254 Eh     22.00 kcal/mol

In case the symmetry of your molecule has not been determined correctly
or in case you have a reason to use a different symmetry number we print 
out the resulting rotational entropy values for sn=1,12 :
 --------------------------------------------------------
|  sn= 1 | S(rot)=       0.01209576 Eh      7.59 kcal/mol|
|  sn= 2 | S(rot)=       0.01144130 Eh      7.18 kcal/mol|
|  sn= 3 | S(rot)=       0.01105847 Eh      6.94 kcal/mol|
|  sn= 4 | S(rot)=       0.01078685 Eh      6.77 kcal/mol|
|  sn= 5 | S(rot)=       0.01057616 Eh      6.64 kcal/mol|
|  sn= 6 | S(rot)=       0.01040402 Eh      6.53 kcal/mol|
|  sn= 7 | S(rot)=       0.01025847 Eh      6.44 kcal/mol|
|  sn= 8 | S(rot)=       0.01013239 Eh      6.36 kcal/mol|
|  sn= 9 | S(rot)=       0.01002118 Eh      6.29 kcal/mol|
|  sn=10 | S(rot)=       0.00992170 Eh      6.23 kcal/mol|
|  sn=11 | S(rot)=       0.00983171 Eh      6.17 kcal/mol|
|  sn=12 | S(rot)=       0.00974956 Eh      6.12 kcal/mol|
 --------------------------------------------------------


-------------------
GIBBS FREE ENERGY
-------------------

The Gibbs free energy is G = H - T*S

Total enthalpy                    ...  -3073.15482001 Eh 
Total entropy correction          ...     -0.03506254 Eh    -22.00 kcal/mol
-----------------------------------------------------------------------
Final Gibbs free energy         ...  -3073.18988255 Eh

For completeness - the Gibbs free energy minus the electronic energy
G-E(el)                           ...      0.00613906 Eh      3.85 kcal/mol

Actual Hessian File stored as opt_TS.001.hess
------------------------------------------------------------------------------
                         ORCA GEOMETRY RELAXATION STEP
------------------------------------------------------------------------------

Reading the OPT-File                    .... done
Getting information on internals        .... done
Copying old internal coords+grads       .... done
Making the new internal coordinates     .... (new redundants).... done
Validating the new internal coordinates .... (new redundants).... done
Calculating the B-matrix                .... done
Calculating the G,G- and P matrices     .... done
Transforming gradient to internals      .... done
Projecting the internal gradient        .... done
Number of atoms                         ....   6
Number of internal coordinates          ....  17
Current Energy                          .... -3073.196021610 Eh
Current gradient norm                   ....     0.018578948 Eh/bohr
Maximum allowed component of the step   ....  0.300
Current trust radius                    ....  0.300
Evaluating the initial hessian          ....  (read) 
(Reading Exact Hessian)...  
InHessName: opt_TS.hess	The file <opt_TS.hess> is opened as a .hess file
done
done
Diagonalizing the Hessian               .... done
Dimension of the hessian                .... 17
Lowest eigenvalues of the non projected Hessian:
 -0.013594481 -0.000012942 -0.000003707  0.000000618  0.000001466
done
Projecting the Hessian                  .... done
Diagonalizing the Hessian               .... done
Dimension of the hessian                ....  17
Lowest eigenvalues of the Hessian:
 -0.013534635  0.012322525  0.012450921  0.014839866  0.074148925
Hessian has   1 negative eigenvalues
Taking P-RFO step
Searching for lambda that maximizes along the lowest mode
TS mode is mode number   0 with eigenvalue  -0.01353464 and components:
   1.    0.53983451
   2.   -0.00167349
   3.    0.00013344
   4.   -0.00229761
   5.   -0.01241468
   6.   -0.08777271
   7.   -0.56261855
   8.   -0.01007497
   9.   -0.24745794
  10.    0.03048568
  11.   -0.24582673
  12.    0.03231706
  13.    0.02882929
  14.    0.26445659
  15.    0.22906785
  16.    0.26184311
  17.   -0.26197136

Lambda that maximizes along the TS mode:       0.00017332
Searching for lambda that minimizes along all other modes
In cycle   1: lambdaN =  -0.00271034   step =   0.00271034
In cycle   2: lambdaN =  -0.00272350   step =   0.00001316
In cycle   3: lambdaN =  -0.00272350   step =   0.00000000
Lambda that minimizes along all other modes:  -0.00272350
The final length of the internal step   ....       0.2378
Converting the step to cartesian space:
 Initial RMS(Int)=    0.0576843893
Transforming coordinates:
 Iter   0:  RMS(Cart)=    0.0490661349 RMS(Int)=    0.0581256793
 Iter   1:  RMS(Cart)=    0.0016462820 RMS(Int)=    0.0019032793
 Iter   2:  RMS(Cart)=    0.0001093033 RMS(Int)=    0.0000802663
 Iter   3:  RMS(Cart)=    0.0000057175 RMS(Int)=    0.0000067961
 Iter   4:  RMS(Cart)=    0.0000004071 RMS(Int)=    0.0000002902
 Iter   5:  RMS(Cart)=    0.0000000204 RMS(Int)=    0.0000000240
done
Storing new coordinates                 .... done

                                .--------------------.
          ----------------------|Geometry convergence|-------------------------
          Item                value                   Tolerance       Converged
          ---------------------------------------------------------------------
          RMS gradient        0.0041523697            0.0001000000      NO
          MAX gradient        0.0092979495            0.0003000000      NO
          RMS step            0.0576843893            0.0020000000      NO
          MAX step            0.1197999678            0.0040000000      NO
          ........................................................
          Max(Bonds)      0.0634      Max(Angles)    4.90
          Max(Dihed)        0.00      Max(Improp)    0.00
          ---------------------------------------------------------------------

The optimization has not yet converged - more geometry cycles are needed


    ---------------------------------------------------------------------------
                         Redundant Internal Coordinates
                            (Angstroem and degrees)

        Definition                    Value    dE/dq     Step     New-Value  comp.(TS mode)
    ----------------------------------------------------------------------------
     1. B(Br  1,C   0)                2.3672 -0.009298  0.0219    2.3891          0.54
     2. B(H   2,C   0)                1.0792 -0.006261  0.0101    1.0893   
     3. B(H   3,C   0)                1.0856 -0.003603  0.0037    1.0893   
     4. B(H   4,C   0)                1.0792 -0.007105  0.0102    1.0894   
     5. B(Cl  5,H   2)                2.5700 -0.000408  0.0189    2.5888   
     6. B(Cl  5,H   3)                2.6325  0.001274 -0.0245    2.6080   
     7. B(Cl  5,C   0)                2.3797 -0.001537  0.0634    2.4431          0.56
     8. B(Cl  5,H   4)                2.5329 -0.001770  0.0507    2.5836   
     9. A(Br  1,C   0,H   3)           91.30 -0.001557    3.05     94.36   
    10. A(H   2,C   0,H   3)          124.23  0.006448   -4.71    119.52   
    11. A(Br  1,C   0,H   4)           92.06 -0.002919    2.79     94.84   
    12. A(H   2,C   0,H   4)          119.64 -0.000004   -0.03    119.61   
    13. A(H   3,C   0,H   4)          115.76 -0.005798    3.76    119.53   
    14. A(H   2,C   0,Cl  5)           87.51  0.001783   -2.44     85.07          0.26
    15. A(H   3,C   0,Cl  5)           90.98  0.002273   -4.90     86.09   
    16. A(H   4,C   0,Cl  5)           85.40  0.001107   -0.58     84.81          0.26
    17. A(Br  1,C   0,H   2)           92.62 -0.000998    2.33     94.95          0.26
    ----------------------------------------------------------------------------

         *************************************************************
         *                GEOMETRY OPTIMIZATION CYCLE   2            *
         *************************************************************
---------------------------------
CARTESIAN COORDINATES (ANGSTROEM)
---------------------------------
  C     -4.357197    1.271346   -0.018789
  Br    -1.991916    1.235893   -0.353389
  H     -4.348006    2.156238    0.616486
  H     -4.389458    0.284458    0.441650
  H     -4.597176    1.374711   -1.076346
  Cl    -6.778525    1.320783    0.306952

----------------------------
CARTESIAN COORDINATES (A.U.)
----------------------------
  NO LB      ZA    FRAG     MASS         X           Y           Z
   0 C     6.0000    0    12.011   -8.233909    2.402495   -0.035507
   1 Br   35.0000    0    79.900   -3.764176    2.335499   -0.667808
   2 H     1.0000    0     1.008   -8.216541    4.074699    1.164991
   3 H     1.0000    0     1.008   -8.294874    0.537549    0.834598
   4 H     1.0000    0     1.008   -8.687403    2.597827   -2.033998
   5 Cl   17.0000    0    35.453  -12.809556    2.495918    0.580055

--------------------------------
INTERNAL COORDINATES (ANGSTROEM)
--------------------------------
 C      0   0   0     0.000000000000     0.00000000     0.00000000
 Br     1   0   0     2.389093030128     0.00000000     0.00000000
 H      1   2   0     1.089354664164    94.89765456     0.00000000
 H      1   2   3     1.089491687759    94.30485625   240.05059398
 H      1   2   3     1.089357212782    94.79218292   120.10827462
 Cl     1   2   3     2.443641229037   179.50265903    87.09310670

---------------------------
INTERNAL COORDINATES (A.U.)
---------------------------
 C      0   0   0     0.000000000000     0.00000000     0.00000000
 Br     1   0   0     4.514731535402     0.00000000     0.00000000
 H      1   2   0     2.058581977980    94.89765456     0.00000000
 H      1   2   3     2.058840915049    94.30485625   240.05059398
 H      1   2   3     2.058586794170    94.79218292   120.10827462
 Cl     1   2   3     4.617812692439   179.50265903    87.09310670



           ************************************************************
           *        Program running with 4 parallel MPI-processes     *
           *              working on a common directory               *
           ************************************************************
------------------------------------------------------------------------------
                   ___                                                        
                  /   \      - P O W E R E D   B Y -                         
                 /     \                                                     
                 |  |  |   _    _      __       _____    __    __             
                 |  |  |  | |  | |    /  \     |  _  \  |  |  /  |          
                  \  \/   | |  | |   /    \    | | | |  |  | /  /          
                 / \  \   | |__| |  /  /\  \   | |_| |  |  |/  /          
                |  |  |   |  __  | /  /__\  \  |    /   |      \           
                |  |  |   | |  | | |   __   |  |    \   |  |\   \          
                \     /   | |  | | |  |  |  |  | |\  \  |  | \   \       
                 \___/    |_|  |_| |__|  |__|  |_| \__\ |__|  \__/        
                                                                              
                      - O R C A' S   B I G   F R I E N D -                    
                                      &                                       
                       - I N T E G R A L  F E E D E R -                       
                                                                              
 v1 FN, 2020, v2 2021                                                         
------------------------------------------------------------------------------


Reading SHARK input file opt_TS.SHARKINP.tmp ... ok
----------------------
SHARK INTEGRAL PACKAGE
----------------------

Number of atoms                             ...      6
Number of basis functions                   ...     79
Number of shells                            ...     35
Maximum angular momentum                    ...      2
Integral batch strategy                     ... SHARK/LIBINT Hybrid
RI-J (if used) integral strategy            ... SPLIT-RIJ (Revised 2003 algorithm where possible)
Printlevel                                  ...      1
Contraction scheme used                     ... SEGMENTED contraction
Coulomb Range Separation                    ... NOT USED
Exchange Range Separation                   ... NOT USED
Finite Nucleus Model                        ... NOT USED
Auxiliary Coulomb fitting basis             ... AVAILABLE
   # of basis functions in Aux-J            ...    191
   # of shells in Aux-J                     ...     65
   Maximum angular momentum in Aux-J        ...      4
Auxiliary J/K fitting basis                 ... NOT available
Auxiliary Correlation fitting basis         ... NOT available
Auxiliary 'external' fitting basis          ... NOT available
Integral threshold                          ...     2.500000e-11
Primitive cut-off                           ...     2.500000e-12
Primitive pair pre-selection threshold      ...     2.500000e-12

Calculating pre-screening integrals         ... done (  0.0 sec) Dimension = 35
Organizing shell pair data                  ... done (  0.0 sec)
Shell pair information
Total number of shell pairs                 ...       630
Shell pairs after pre-screening             ...       577
Total number of primitive shell pairs       ...      2935
Primitive shell pairs kept                  ...      2033
          la=0 lb=0:    157 shell pairs
          la=1 lb=0:    200 shell pairs
          la=1 lb=1:     73 shell pairs
          la=2 lb=0:     80 shell pairs
          la=2 lb=1:     54 shell pairs
          la=2 lb=2:     13 shell pairs

Calculating one electron integrals          ... done (  0.0 sec)
Calculating RI/J V-Matrix + Cholesky decomp.... done (  0.0 sec)
Calculating Nuclear repulsion               ... done (  0.0 sec) ENN=    174.289646829256 Eh

SHARK setup successfully completed in   0.1 seconds

Maximum memory used throughout the entire GTOINT-calculation: 10.2 MB


           ************************************************************
           *        Program running with 4 parallel MPI-processes     *
           *              working on a common directory               *
           ************************************************************

Diagonalization of the overlap matrix:
Smallest eigenvalue                        ... 1.444e-02
Time for diagonalization                   ...    0.001 sec
Threshold for overlap eigenvalues          ... 1.000e-08
Number of eigenvalues below threshold      ... 0
Time for construction of square roots      ...    0.000 sec
Total time needed                          ...    0.002 sec

-------------------
DFT GRID GENERATION
-------------------

General Integration Accuracy     IntAcc      ... 4.388
Radial Grid Type                 RadialGrid  ... OptM3 with GC (2021)
Angular Grid (max. ang.)         AngularGrid ... 4 (Lebedev-302)
Angular grid pruning method      GridPruning ... 4 (adaptive)
Weight generation scheme         WeightScheme... Becke
Basis function cutoff            BFCut       ... 1.0000e-11
Integration weight cutoff        WCut        ... 1.0000e-14
Angular grids for H and He will be reduced by one unit
Partially contracted basis set               ... off
Rotationally invariant grid construction     ... off

Total number of grid points                  ...    34602
Total number of batches                      ...      544
Average number of points per batch           ...       63
Average number of grid points per atom       ...     5767
Time for grid setup =    0.263 sec

--------------
SCF ITERATIONS
--------------
ITER       Energy         Delta-E        Max-DP      RMS-DP      [F,P]     Damp
               ***  Starting incremental Fock matrix formation  ***
  0  -3073.1924851373   0.000000000000 0.00188859  0.00011617  0.0124849 0.8500
  1  -3073.1926126728  -0.000127535513 0.00230865  0.00013889  0.0108641 0.8500
                               ***Turning on DIIS***
  2  -3073.1927322668  -0.000119593958 0.01566467  0.00091295  0.0091730 0.0000
  3  -3073.1933887395  -0.000656472764 0.00255882  0.00016279  0.0014685 0.0000
                      *** Initiating the SOSCF procedure ***
                           *** Shutting down DIIS ***
                      *** Re-Reading the Fockian *** 
                      *** Removing any level shift *** 
ITER      Energy       Delta-E        Grad      Rot      Max-DP    RMS-DP
  4  -3073.19340263  -0.0000138939  0.000315  0.000315  0.001831  0.000071
               *** Restarting incremental Fock matrix formation ***
  5  -3073.19340797  -0.0000053405  0.000267  0.001937  0.001465  0.000073
  6  -3073.19340661   0.0000013594  0.000634  0.001416  0.000987  0.000046
  7  -3073.19340887  -0.0000022520  0.000079  0.000254  0.000254  0.000012
  8  -3073.19340887  -0.0000000076  0.000072  0.000151  0.000138  0.000005
  9  -3073.19340891  -0.0000000316  0.000044  0.000096  0.000110  0.000005
 10  -3073.19340891  -0.0000000049  0.000044  0.000045  0.000046  0.000003
 11  -3073.19340892  -0.0000000074  0.000004  0.000004  0.000012  0.000000
                  ***Gradient check signals convergence***
              ***Rediagonalizing the Fockian in SOSCF/NRSCF***

               *****************************************************
               *                     SUCCESS                       *
               *           SCF CONVERGED AFTER  12 CYCLES          *
               *****************************************************

Total Energy       :        -3073.19340892 Eh          -83625.84411 eV
  Last Energy change         ...   -5.2160e-10  Tolerance :   1.0000e-08
  Last MAX-Density change    ...    4.9882e-06  Tolerance :   1.0000e-07
             **** THE GBW FILE WAS UPDATED (opt_TS.gbw) ****
             **** DENSITY opt_TS.scfp WAS UPDATED ****
             **** ENERGY FILE WAS UPDATED (opt_TS.en.tmp) ****
             **** THE GBW FILE WAS UPDATED (opt_TS.gbw) ****
             **** DENSITY opt_TS.scfp WAS UPDATED ****
Total SCF time: 0 days 0 hours 0 min 2 sec 

Maximum memory used throughout the entire SCF-calculation: 13.2 MB


-------------------------------------------------------------------------------
                          DFT DISPERSION CORRECTION                            
                                                                               
                              DFTD3 V3.1  Rev 1                                
                          USING Becke-Johnson damping                          
-------------------------------------------------------------------------------
-------------------------   ----------------
Dispersion correction           -0.003929142
-------------------------   ----------------


-------------------------   --------------------
[...]
-------------------------   ----------------


-------------------------   --------------------
FINAL SINGLE POINT ENERGY     -3073.197345858668
-------------------------   --------------------

                                *** OPTIMIZATION RUN DONE ***

                            ***************************************
                            *     ORCA property calculations      *
                            ***************************************

                                    ---------------------
                                    Active property flags
                                    ---------------------
   (+) Dipole Moment


------------------------------------------------------------------------------
                       ORCA ELECTRIC PROPERTIES CALCULATION
------------------------------------------------------------------------------

Dipole Moment Calculation                       ... on
Quadrupole Moment Calculation                   ... off
Polarizability Calculation                      ... off
GBWName                                         ... opt_TS.gbw
Electron density                                ... opt_TS.scfp
The origin for moment calculation is the CENTER OF MASS  = (-6.743584,  2.381479 -0.247169)

-------------
DIPOLE MOMENT
-------------
                                X             Y             Z
Electronic contribution:     14.63835      -0.24066      -2.03067
Nuclear contribution   :    -12.81084       0.21024       1.77742
                        -----------------------------------------
Total Dipole Moment    :      1.82751      -0.03042      -0.25325
                        -----------------------------------------
Magnitude (a.u.)       :      1.84523
Magnitude (Debye)      :      4.69020



--------------------
Rotational spectrum 
--------------------
 
Rotational constants in cm-1:     4.728328     0.028576     0.028576 
Rotational constants in MHz : 141751.710872   856.692931   856.692776 

 Dipole components along the rotational axes: 
x,y,z [a.u.] :     1.845228    -0.000194     0.000186 
x,y,z [Debye]:     4.690197    -0.000492     0.000472 

 


           ************************************************************
           *        Program running with 4 parallel MPI-processes     *
           *              working on a common directory               *
           ************************************************************

-------------------------------------------------------------------------------
                               ORCA SCF HESSIAN
-------------------------------------------------------------------------------

                   --------- SHARK INITIALIZATION DONE ---------

Hessian of the Kohn-Sham DFT energy:
Kohn-Sham wavefunction type                      ... RKS
Hartree-Fock exchange scaling                    ...    0.000
Number of operators                              ...    1
Number of atoms                                  ...    6
Basis set dimensions                             ...   79
Integral neglect threshold                       ... 2.5e-11
Integral primitive cutoff                        ... 2.5e-12

Setting up DFT Hessian calculations              ... 

HESS GRID
---------

General Integration Accuracy     IntAcc      ... 4.629
Radial Grid Type                 RadialGrid  ... OptM3 with GC (2021)
Angular Grid (max. ang.)         AngularGrid ... 5 (Lebedev-434)
Angular grid pruning method      GridPruning ... 4 (adaptive)
Weight generation scheme         WeightScheme... Becke
Basis function cutoff            BFCut       ... 1.0000e-11
Integration weight cutoff        WCut        ... 1.0000e-14
Angular grids for H and He will be reduced by one unit
Partially contracted basis set               ... off
Rotationally invariant grid construction     ... off

Total number of grid points                  ...    53674
Total number of batches                      ...      842
Average number of points per batch           ...       63
Average number of grid points per atom       ...     8946

Building densities                               ... done   (      0.0 sec)
Calculating rho(r) on the grid                   ... done   (      0.1 sec)
Building xc-kernel on the grid                   ... done   (      0.0 sec)
                                                     done   (      1.1 sec)

Nuclear repulsion Hessian  (SHARK)               ... done   (      0.0 sec)

----------------------------------------------
Forming right-hand sides of CP-SCF equations     ...
----------------------------------------------
One electron integral derivatives  (SHARK)       ... done   (      0.0 sec)
Transforming the overlap derivative matrices     ... done   (      0.0 sec)
Making the Q(x) pseudodensities                  ... done   (      0.0 sec)
Adding the E*S(x)*S(y) terms to the Hessian      ... done   (      0.0 sec)
Calculating energy weighted overlap derivatives  ... done   (      0.0 sec)
Two electron integral derivatives (SHARK-RI)     ... done   (      0.4 sec)
Exchange-correlation integral derivatives        ... done   (      3.6 sec)
tr(F(y)Q(x)) contribution to the Hessian         ... done   (      0.0 sec)
Response fock operator R(S(x)) (SHARK-RI)        ... done   (      0.3 sec)
XC Response fock operator R(S(x))                ... done   (      0.9 sec)
tr(F(y)S(x)) contribution to the Hessian         ... done   (      0.0 sec)
Transforming and finalizing RHSs                 ... done   (      0.0 sec)

----------------------------------------------
Solving the CP-SCF equations (RI)                ...
----------------------------------------------
     CP-SCF ITERATION   0:   1.2212e-01 (   0.2 sec   0/ 18 done)
     CP-SCF ITERATION   1:   9.9635e-02 (   0.2 sec   0/ 18 done)
     CP-SCF ITERATION   2:   1.8553e-02 (   0.2 sec   0/ 18 done)
     CP-SCF ITERATION   3:   7.7572e-03 (   0.2 sec   0/ 18 done)
     CP-SCF ITERATION   4:   1.8268e-03 (   0.2 sec   1/ 18 done)
     CP-SCF ITERATION   5:   5.1934e-04 (   0.3 sec   4/ 18 done)
     CP-SCF ITERATION   6:   2.5142e-04 (   0.2 sec  16/ 18 done)
     CP-SCF ITERATION   7:   7.8270e-05 (   0.1 sec  18/ 18 done)
                    *** THE CP-SCF HAS CONVERGED ***

                                                 ... done   (      1.8 sec)
Forming perturbed density Hessian contributions  ... done   (      0.0 sec)
2nd integral derivative contribs (SHARK-RI)      ... done   (      0.8 sec)
Exchange-correlation Hessian                     ... done   (      2.5 sec)
Dispersion correction in the Hessian             ... done   (      0.5 sec)
Dipole derivatives                               ... (center of mass: -6.743584,  2.381479 -0.247169)done   (      0.1 sec)

Total SCF Hessian time: 0 days 0 hours 0 min 12 sec 

Writing the Hessian file to the disk             ... done


Maximum memory used throughout the entire SCFHESS-calculation: 56.1 MB

-----------------------
VIBRATIONAL FREQUENCIES
-----------------------

Scaling factor for frequencies =  1.000000000  (already applied!)

   0:         0.00 cm**-1
   1:         0.00 cm**-1
   2:         0.00 cm**-1
   3:         0.00 cm**-1
   4:         0.00 cm**-1
   5:         0.00 cm**-1
   6:      -273.37 cm**-1 ***imaginary mode***
   7:       167.86 cm**-1
   8:       167.88 cm**-1
   9:       170.35 cm**-1
  10:       786.44 cm**-1
  11:       786.45 cm**-1
  12:       853.33 cm**-1
  13:      1306.88 cm**-1
  14:      1307.04 cm**-1
  15:      3111.75 cm**-1
  16:      3322.97 cm**-1
  17:      3323.05 cm**-1


------------
NORMAL MODES
------------

These modes are the Cartesian displacements weighted by the diagonal matrix
M(i,i)=1/sqrt(m[i]) where m[i] is the mass of the displaced atom
Thus, these vectors are normalized but *not* orthogonal

                  0          1          2          3          4          5    
      0       0.000000   0.000000   0.000000   0.000000   0.000000   0.000000
      1       0.000000   0.000000   0.000000   0.000000   0.000000   0.000000
      2       0.000000   0.000000   0.000000   0.000000   0.000000   0.000000
      3       0.000000   0.000000   0.000000   0.000000   0.000000   0.000000
      4       0.000000   0.000000   0.000000   0.000000   0.000000   0.000000
      5       0.000000   0.000000   0.000000   0.000000   0.000000   0.000000
      6       0.000000   0.000000   0.000000   0.000000   0.000000   0.000000
      7       0.000000   0.000000   0.000000   0.000000   0.000000   0.000000
      8       0.000000   0.000000   0.000000   0.000000   0.000000   0.000000
      9       0.000000   0.000000   0.000000   0.000000   0.000000   0.000000
     10       0.000000   0.000000   0.000000   0.000000   0.000000   0.000000
     11       0.000000   0.000000   0.000000   0.000000   0.000000   0.000000
     12       0.000000   0.000000   0.000000   0.000000   0.000000   0.000000
     13       0.000000   0.000000   0.000000   0.000000   0.000000   0.000000
     14       0.000000   0.000000   0.000000   0.000000   0.000000   0.000000
     15       0.000000   0.000000   0.000000   0.000000   0.000000   0.000000
     16       0.000000   0.000000   0.000000   0.000000   0.000000   0.000000
     17       0.000000   0.000000   0.000000   0.000000   0.000000   0.000000
                  6          7          8          9         10         11    
      0       0.964418  -0.065902   0.003479  -0.164937  -0.003962   0.000135
      1      -0.016046  -0.033055   0.483723   0.002894  -0.001738   0.028376
      2      -0.133529  -0.479272  -0.033839  -0.004339  -0.028119  -0.001787
      3      -0.078201   0.003984  -0.000504   0.402826   0.000638  -0.000026
      4       0.001287   0.003175  -0.045906  -0.006675   0.000285  -0.004650
      5       0.010834   0.045800   0.003235  -0.053273   0.004608   0.000292
      6      -0.050263  -0.111342   0.056813  -0.176208   0.513636  -0.625437
      7      -0.062614  -0.034607   0.496318   0.008637  -0.012891  -0.039425
      8      -0.038217  -0.486770  -0.039721   0.000500  -0.016635   0.097713
      9      -0.044862  -0.091778  -0.060861  -0.176076   0.297398   0.749981
     10       0.070995  -0.031708   0.499287  -0.003044   0.004093  -0.058715
     11      -0.026049  -0.486866  -0.027709  -0.000542   0.016822  -0.106598
     12      -0.032553  -0.000369   0.014511  -0.172182  -0.788736  -0.126181
     13      -0.006794  -0.035600   0.495640   0.003627   0.018237  -0.057586
     14       0.082738  -0.503803  -0.036710  -0.011091   0.153928   0.018690
     15      -0.146860   0.019133  -0.000340  -0.837055  -0.000731   0.000060
     16       0.002490   0.006940  -0.102821   0.013801  -0.000323   0.005294
     17       0.020295   0.101158   0.007135   0.121848  -0.005240  -0.000333
                 12         13         14         15         16         17    
      0      -0.008187   0.011403  -0.005293   0.011007  -0.009698  -0.010256
      1       0.000140  -0.028292  -0.086398  -0.000139   0.065412  -0.078239
      2       0.001146   0.085640  -0.027840  -0.001572  -0.077650  -0.064632
      3      -0.010933   0.000002  -0.000000  -0.000124   0.000013   0.000014
      4       0.000178  -0.000007  -0.000018   0.000002  -0.000088   0.000105
      5       0.001515   0.000020  -0.000006   0.000017   0.000105   0.000087
      6       0.573673  -0.052748  -0.107784   0.009325  -0.001586   0.004430
      7       0.027413   0.465917   0.072975   0.469529  -0.044674   0.658728
      8      -0.053059  -0.609435  -0.230106   0.335666  -0.046617   0.470854
      9       0.571834  -0.021653   0.132745  -0.019770  -0.033434   0.014254
     10      -0.050556  -0.299738   0.168094  -0.523158  -0.664575   0.312276
     11      -0.060314  -0.515502   0.509135   0.244405   0.305969  -0.158219
     12       0.564059  -0.060737   0.037677  -0.121866   0.148694   0.101526
     13      -0.005140   0.169265   0.782774   0.055312  -0.057525  -0.053891
     14      -0.123726   0.109862   0.050903  -0.561187   0.650855   0.444956
     15      -0.021193  -0.000026   0.000013   0.000311   0.000024   0.000026
     16       0.000356   0.000064   0.000201  -0.000005  -0.000162   0.000194
     17       0.002938  -0.000197   0.000064  -0.000043   0.000192   0.000160


-----------
IR SPECTRUM
-----------

 Mode   freq       eps      Int      T**2         TX        TY        TZ
       cm**-1   L/(mol*cm) km/mol    a.u.
----------------------------------------------------------------------------
  7:    167.86   0.001142    5.77  0.002124  (-0.006770 -0.003120 -0.045479)
  8:    167.88   0.001142    5.77  0.002122  ( 0.000383  0.045951 -0.003222)
  9:    170.35   0.000412    2.08  0.000754  ( 0.027073 -0.000444 -0.004591)
 10:    786.44   0.000244    1.23  0.000097  ( 0.001315  0.000591  0.009736)
 11:    786.45   0.000243    1.23  0.000097  (-0.000116 -0.009804  0.000622)
 12:    853.33   0.004324   21.85  0.001581  (-0.039389  0.000625  0.005435)
 13:   1306.88   0.000720    3.64  0.000172  (-0.001654  0.004073 -0.012357)
 14:   1307.04   0.000716    3.62  0.000171  ( 0.000772  0.012419  0.004017)
 15:   3111.75   0.000002    0.01  0.000000  (-0.000468  0.000036  0.000030)
 16:   3322.97   0.000272    1.37  0.000026  ( 0.000469 -0.003240  0.003846)
 17:   3323.05   0.000270    1.37  0.000025  ( 0.000496  0.003838  0.003224)

* The epsilon (eps) is given for a Dirac delta lineshape.
** The dipole moment derivative (T) already includes vibrational overlap.

The first frequency considered to be a vibration is 7
The total number of vibrations considered is 11


--------------------------
THERMOCHEMISTRY AT 298.15K
--------------------------

Temperature         ... 298.15 K
Pressure            ... 1.00 atm
Total Mass          ... 130.39 AMU

Throughout the following assumptions are being made:
  (1) The electronic state is orbitally nondegenerate
  (2) There are no thermally accessible electronically excited states
  (3) Hindered rotations indicated by low frequency modes are not
      treated as such but are treated as vibrations and this may
      cause some error
  (4) All equations used are the standard statistical mechanics
      equations for an ideal gas
  (5) All vibrations are strictly harmonic

freq.     167.86  E(vib)   ...       0.38 
freq.     167.88  E(vib)   ...       0.38 
freq.     170.35  E(vib)   ...       0.38 
freq.     786.44  E(vib)   ...       0.05 
freq.     786.45  E(vib)   ...       0.05 
freq.     853.33  E(vib)   ...       0.04 
freq.    1306.88  E(vib)   ...       0.01 
freq.    1307.04  E(vib)   ...       0.01 
freq.    3111.75  E(vib)   ...       0.00 
freq.    3322.97  E(vib)   ...       0.00 
freq.    3323.05  E(vib)   ...       0.00 

------------
INNER ENERGY
------------

The inner energy is: U= E(el) + E(ZPE) + E(vib) + E(rot) + E(trans)
    E(el)   - is the total energy from the electronic structure calculation
              = E(kin-el) + E(nuc-el) + E(el-el) + E(nuc-nuc)
    E(ZPE)  - the the zero temperature vibrational energy from the frequency calculation
    E(vib)  - the the finite temperature correction to E(ZPE) due to population
              of excited vibrational states
    E(rot)  - is the rotational thermal energy
    E(trans)- is the translational thermal energy

Summary of contributions to the inner energy U:
Electronic energy                ...  -3073.19734586 Eh
Zero point energy                ...      0.03486506 Eh      21.88 kcal/mol
Thermal vibrational correction   ...      0.00208536 Eh       1.31 kcal/mol
Thermal rotational correction    ...      0.00141627 Eh       0.89 kcal/mol
Thermal translational correction ...      0.00141627 Eh       0.89 kcal/mol
-----------------------------------------------------------------------
Total thermal energy                  -3073.15756290 Eh


Summary of corrections to the electronic energy:
(perhaps to be used in another calculation)
Total thermal correction                  0.00491790 Eh       3.09 kcal/mol
Non-thermal (ZPE) correction              0.03486506 Eh      21.88 kcal/mol
-----------------------------------------------------------------------
Total correction                          0.03978296 Eh      24.96 kcal/mol


--------
ENTHALPY
--------

The enthalpy is H = U + kB*T
                kB is Boltzmann's constant
Total free energy                 ...  -3073.15756290 Eh 
Thermal Enthalpy correction       ...      0.00094421 Eh       0.59 kcal/mol
-----------------------------------------------------------------------
Total Enthalpy                    ...  -3073.15661869 Eh


Note: Only C1 symmetry has been detected, increase convergence thresholds 
      if your molecule has a higher symmetry. Symmetry factor of 1.0 is   
      used for the rotational entropy correction. 
 

Note: Rotational entropy computed according to Herzberg 
Infrared and Raman Spectra, Chapter V,1, Van Nostrand Reinhold, 1945 
Point Group:  C1, Symmetry Number:   1  
Rotational constants in cm-1:     4.728328     0.028576     0.028576 

Vibrational entropy computed according to the QRRHO of S. Grimme
Chem.Eur.J. 2012 18 9955


-------
ENTROPY
-------

The entropy contributions are T*S = T*(S(el)+S(vib)+S(rot)+S(trans))
     S(el)   - electronic entropy
     S(vib)  - vibrational entropy
     S(rot)  - rotational entropy
     S(trans)- translational entropy
The entropies will be listed as multiplied by the temperature to get
units of energy

Electronic entropy                ...      0.00000000 Eh      0.00 kcal/mol
Vibrational entropy               ...      0.00378738 Eh      2.38 kcal/mol
Rotational entropy                ...      0.01213412 Eh      7.61 kcal/mol
Translational entropy             ...      0.01924704 Eh     12.08 kcal/mol
-----------------------------------------------------------------------
Final entropy term                ...      0.03516854 Eh     22.07 kcal/mol

In case the symmetry of your molecule has not been determined correctly
or in case you have a reason to use a different symmetry number we print 
out the resulting rotational entropy values for sn=1,12 :
 --------------------------------------------------------
|  sn= 1 | S(rot)=       0.01213412 Eh      7.61 kcal/mol|
|  sn= 2 | S(rot)=       0.01147966 Eh      7.20 kcal/mol|
|  sn= 3 | S(rot)=       0.01109683 Eh      6.96 kcal/mol|
|  sn= 4 | S(rot)=       0.01082521 Eh      6.79 kcal/mol|
|  sn= 5 | S(rot)=       0.01061452 Eh      6.66 kcal/mol|
|  sn= 6 | S(rot)=       0.01044237 Eh      6.55 kcal/mol|
|  sn= 7 | S(rot)=       0.01029683 Eh      6.46 kcal/mol|
|  sn= 8 | S(rot)=       0.01017075 Eh      6.38 kcal/mol|
|  sn= 9 | S(rot)=       0.01005954 Eh      6.31 kcal/mol|
|  sn=10 | S(rot)=       0.00996006 Eh      6.25 kcal/mol|
|  sn=11 | S(rot)=       0.00987007 Eh      6.19 kcal/mol|
|  sn=12 | S(rot)=       0.00978792 Eh      6.14 kcal/mol|
 --------------------------------------------------------


-------------------
GIBBS FREE ENERGY
-------------------

The Gibbs free energy is G = H - T*S

Total enthalpy                    ...  -3073.15661869 Eh 
Total entropy correction          ...     -0.03516854 Eh    -22.07 kcal/mol
-----------------------------------------------------------------------
Final Gibbs free energy         ...  -3073.19178723 Eh

For completeness - the Gibbs free energy minus the electronic energy
G-E(el)                           ...      0.00555863 Eh      3.49 kcal/mol


Timings for individual modules:

Sum of individual times         ...       43.374 sec (=   0.723 min)
GTO integral calculation        ...        3.016 sec (=   0.050 min)   7.0 %
SCF iterations                  ...       11.197 sec (=   0.187 min)  25.8 %
SCF Gradient evaluation         ...        5.117 sec (=   0.085 min)  11.8 %
Geometry relaxation             ...        0.088 sec (=   0.001 min)   0.2 %
Analytical frequency calculation...       23.955 sec (=   0.399 min)  55.2 %
                             ****ORCA TERMINATED NORMALLY****
TOTAL RUN TIME: 0 days 0 hours 0 minutes 46 seconds 1 msec
