
                                 *****************
                                 * O   R   C   A *
                                 *****************

                                            #,                                       
                                            ###                                      
                                            ####                                     
                                            #####                                    
                                            ######                                   
                                           ########,                                 
                                     ,,################,,,,,                         
                               ,,#################################,,                 
                          ,,##########################################,,             
                       ,#########################################, ''#####,          
                    ,#############################################,,   '####,        
                  ,##################################################,,,,####,       
                ,###########''''           ''''###############################       
              ,#####''   ,,,,##########,,,,          '''####'''          '####       
            ,##' ,,,,###########################,,,                        '##       
           ' ,,###''''                  '''############,,,                           
         ,,##''                                '''############,,,,        ,,,,,,###''
      ,#''                                            '''#######################'''  
     '                                                          ''''####''''         
             ,#######,   #######,   ,#######,      ##                                
            ,#'     '#,  ##    ##  ,#'     '#,    #''#        ######   ,####,        
            ##       ##  ##   ,#'  ##            #'  '#       #        #'  '#        
            ##       ##  #######   ##           ,######,      #####,   #    #        
            '#,     ,#'  ##    ##  '#,     ,#' ,#      #,         ##   #,  ,#        
             '#######'   ##     ##  '#######'  #'      '#     #####' # '####'        



                  #######################################################
                  #                        -***-                        #
                  #          Department of theory and spectroscopy      #
                  #    Directorship and core code : Frank Neese         #
                  #        Max Planck Institute fuer Kohlenforschung    #
                  #                Kaiser Wilhelm Platz 1               #
                  #                 D-45470 Muelheim/Ruhr               #
                  #                      Germany                        #
                  #                                                     #
                  #                  All rights reserved                #
                  #                        -***-                        #
                  #######################################################


                         Program Version 5.0.4 -  RELEASE  -


 With contributions from (in alphabetic order):
   Daniel Aravena         : Magnetic Suceptibility
   Michael Atanasov       : Ab Initio Ligand Field Theory (pilot matlab implementation)
   Alexander A. Auer      : GIAO ZORA, VPT2 properties, NMR spectrum
   Ute Becker             : Parallelization
   Giovanni Bistoni       : ED, misc. LED, open-shell LED, HFLD
   Martin Brehm           : Molecular dynamics
   Dmytro Bykov           : SCF Hessian
   Vijay G. Chilkuri      : MRCI spin determinant printing, contributions to CSF-ICE
   Dipayan Datta          : RHF DLPNO-CCSD density
   Achintya Kumar Dutta   : EOM-CC, STEOM-CC
   Dmitry Ganyushin       : Spin-Orbit,Spin-Spin,Magnetic field MRCI
   Miquel Garcia          : C-PCM and meta-GGA Hessian, CC/C-PCM, Gaussian charge scheme
   Yang Guo               : DLPNO-NEVPT2, F12-NEVPT2, CIM, IAO-localization
   Andreas Hansen         : Spin unrestricted coupled pair/coupled cluster methods
   Benjamin Helmich-Paris : MC-RPA, TRAH-SCF, COSX integrals
   Lee Huntington         : MR-EOM, pCC
   Robert Izsak           : Overlap fitted RIJCOSX, COSX-SCS-MP3, EOM
   Marcus Kettner         : VPT2
   Christian Kollmar      : KDIIS, OOCD, Brueckner-CCSD(T), CCSD density, CASPT2, CASPT2-K
   Simone Kossmann        : Meta GGA functionals, TD-DFT gradient, OOMP2, MP2 Hessian
   Martin Krupicka        : Initial AUTO-CI
   Lucas Lang             : DCDCAS
   Marvin Lechner         : AUTO-CI (C++ implementation), FIC-MRCC
   Dagmar Lenk            : GEPOL surface, SMD
   Dimitrios Liakos       : Extrapolation schemes; Compound Job, initial MDCI parallelization
   Dimitrios Manganas     : Further ROCIS development; embedding schemes
   Dimitrios Pantazis     : SARC Basis sets
   Anastasios Papadopoulos: AUTO-CI, single reference methods and gradients
   Taras Petrenko         : DFT Hessian,TD-DFT gradient, ASA, ECA, R-Raman, ABS, FL, XAS/XES, NRVS
   Peter Pinski           : DLPNO-MP2, DLPNO-MP2 Gradient
   Christoph Reimann      : Effective Core Potentials
   Marius Retegan         : Local ZFS, SOC
   Christoph Riplinger    : Optimizer, TS searches, QM/MM, DLPNO-CCSD(T), (RO)-DLPNO pert. Triples
   Tobias Risthaus        : Range-separated hybrids, TD-DFT gradient, RPA, STAB
   Michael Roemelt        : Original ROCIS implementation
   Masaaki Saitow         : Open-shell DLPNO-CCSD energy and density
   Barbara Sandhoefer     : DKH picture change effects
   Avijit Sen             : IP-ROCIS
   Kantharuban Sivalingam : CASSCF convergence, NEVPT2, FIC-MRCI
   Bernardo de Souza      : ESD, SOC TD-DFT
   Georgi Stoychev        : AutoAux, RI-MP2 NMR, DLPNO-MP2 response
   Willem Van den Heuvel  : Paramagnetic NMR
   Boris Wezisla          : Elementary symmetry handling
   Frank Wennmohs         : Technical directorship


 We gratefully acknowledge several colleagues who have allowed us to
 interface, adapt or use parts of their codes:
   Stefan Grimme, W. Hujo, H. Kruse, P. Pracht,  : VdW corrections, initial TS optimization,
                  C. Bannwarth, S. Ehlert          DFT functionals, gCP, sTDA/sTD-DF
   Ed Valeev, F. Pavosevic, A. Kumar             : LibInt (2-el integral package), F12 methods
   Garnet Chan, S. Sharma, J. Yang, R. Olivares  : DMRG
   Ulf Ekstrom                                   : XCFun DFT Library
   Mihaly Kallay                                 : mrcc  (arbitrary order and MRCC methods)
   Jiri Pittner, Ondrej Demel                    : Mk-CCSD
   Frank Weinhold                                : gennbo (NPA and NBO analysis)
   Christopher J. Cramer and Donald G. Truhlar   : smd solvation model
   Lars Goerigk                                  : TD-DFT with DH, B97 family of functionals
   V. Asgeirsson, H. Jonsson                     : NEB implementation
   FAccTs GmbH                                   : IRC, NEB, NEB-TS, DLPNO-Multilevel, CI-OPT
                                                   MM, QMMM, 2- and 3-layer-ONIOM, Crystal-QMMM,
                                                   LR-CPCM, SF, NACMEs, symmetry and pop. for TD-DFT,
                                                   nearIR, NL-DFT gradient (VV10), updates on ESD,
                                                   ML-optimized integration grids
   S Lehtola, MJT Oliveira, MAL Marques          : LibXC Library
   Liviu Ungur et al                             : ANISO software


 Your calculation uses the libint2 library for the computation of 2-el integrals
 For citations please refer to: http://libint.valeyev.net

 Your ORCA version has been built with support for libXC version: 5.1.0
 For citations please refer to: https://tddft.org/programs/libxc/

 This ORCA versions uses:
   CBLAS   interface :  Fast vector & matrix operations
   LAPACKE interface :  Fast linear algebra routines
   SCALAPACK package :  Parallel linear algebra routines
   Shared memory     :  Shared parallel matrices
   BLAS/LAPACK       :  OpenBLAS 0.3.15  USE64BITINT DYNAMIC_ARCH NO_AFFINITY SkylakeX SINGLE_THREADED
        Core in use  :  SkylakeX
   Copyright (c) 2011-2014, The OpenBLAS Project


Your calculation utilizes the atom-pairwise dispersion correction
with the Becke-Johnson damping scheme (D3BJ)
Cite in your paper:
S.Grimme, S.Ehrlich, L.Goerigk, J Comput Chem, (2011), 32, 1456–1465 
S.Grimme, J.Antony, S.Ehrlich and H.Krieg, J.Chem.Phys., 132, (2010), 154104 
   

================================================================================

----- Orbital basis set information -----
Your calculation utilizes the basis: def2-TZVP
   F. Weigend and R. Ahlrichs, Phys. Chem. Chem. Phys. 7, 3297 (2005).

----- AuxJ basis set information -----
Your calculation utilizes the auxiliary basis: def2/J
   F. Weigend, Phys. Chem. Chem. Phys. 8, 1057 (2006).

================================================================================
                                        WARNINGS
                       Please study these warnings very carefully!
================================================================================



WARNING: Found flag for RIJCOSX approximation but no HF exchange needed!
  ===> : RIJCOSX  will be disabled and Split-RI-J is turned on

WARNING: Geometry Optimization
  ===> : Switching off AutoStart
         For restart on a previous wavefunction, please use MOREAD

INFO   : the flag for use of the SHARK integral package has been found!

================================================================================
                                       INPUT FILE
================================================================================
NAME = SN2_scan_ts.inp
|  1> ! PBE def2-TZVP D3BJ RIJCOSX def2/J ScanTS TIGHTSCF SLOWCONV Freq
|  2> 
|  3> %pal
|  4>     nprocs 4
|  5> end
|  6> 
|  7> %maxcore 750
|  8> 
|  9> %geom
| 10>     scan B 0 5 = 3., 1.0, 30 end
| 11> end
| 12> 
| 13> *xyz -1 1
| 14>     C    -4.012150000000      1.254880000000     -0.039060000000
| 15>     Br   -2.249570000000      1.185170000000     -0.277250000000
| 16>     H    -4.243710000000      2.126130000000      0.576650000000
| 17>     H    -4.329930000000      0.338390000000      0.461790000000
| 18>     H    -4.490100000000      1.340740000000     -1.016800000000
| 19>     Cl   -7.213690000000      1.381520000000      0.393620000000
| 20> *
| 21> 
| 22> 
| 23>                          ****END OF INPUT****
================================================================================

                       ******************************
                       *    Relaxed Surface Scan    *
                       ******************************

                      Bond (  5,   0):   range=   3.00000000 ..   1.00000000  steps =   30

There is 1 parameter to be scanned.
There will be   30 constrained geometry optimizations.


         *************************************************************
         *               RELAXED SURFACE SCAN STEP   1               *
         *                                                           *
         *                 Bond (  5,   0)  :   3.00000000           *
         *************************************************************

Geometry optimization settings:
Update method            Update   .... BFGS
Choice of coordinates    CoordSys .... Z-matrix Internals
Initial Hessian          InHess   .... Almoef's Model

Convergence Tolerances:
Energy Change            TolE     ....  5.0000e-06 Eh
Max. Gradient            TolMAXG  ....  3.0000e-04 Eh/bohr
RMS Gradient             TolRMSG  ....  1.0000e-04 Eh/bohr
Max. Displacement        TolMAXD  ....  4.0000e-03 bohr
RMS Displacement         TolRMSD  ....  2.0000e-03 bohr
Strict Convergence                ....  False
------------------------------------------------------------------------------
                        ORCA OPTIMIZATION COORDINATE SETUP
------------------------------------------------------------------------------

The optimization will be done in new redundant internal coordinates
Making redundant internal coordinates   ...  (new redundants) done
Evaluating the initial hessian          ...  (Almloef) done
Evaluating the coordinates              ...  done
Calculating the B-matrix                .... done
Calculating the G-matrix                .... done
Diagonalizing the G-matrix              .... done
Imposing constraints:
 Iter   0:  RMS(Cart)=    0.0452769064 RMS(Int)=    0.2290428268
 Iter   1:  RMS(Cart)=    0.0235397917 RMS(Int)=    0.1190810252
 Iter   2:  RMS(Cart)=    0.0122385083 RMS(Int)=    0.0619110878
 Iter   3:  RMS(Cart)=    0.0063628891 RMS(Int)=    0.0321880231
 Iter   4:  RMS(Cart)=    0.0033081122 RMS(Int)=    0.0167347864
 Iter   5:  RMS(Cart)=    0.0017199115 RMS(Int)=    0.0087005367
 Iter   6:  RMS(Cart)=    0.0008941944 RMS(Int)=    0.0045234721
 Iter   7:  RMS(Cart)=    0.0004648982 RMS(Int)=    0.0023517859
 Iter   8:  RMS(Cart)=    0.0002417039 RMS(Int)=    0.0012227105
 Iter   9:  RMS(Cart)=    0.0001256636 RMS(Int)=    0.0006356961
 Iter  10:  RMS(Cart)=    0.0000653334 RMS(Int)=    0.0003305030
 Iter  11:  RMS(Cart)=    0.0000339673 RMS(Int)=    0.0001718309
 Iter  12:  RMS(Cart)=    0.0000176599 RMS(Int)=    0.0000893361
 Iter  13:  RMS(Cart)=    0.0000091815 RMS(Int)=    0.0000464465
 Iter  14:  RMS(Cart)=    0.0000047735 RMS(Int)=    0.0000241479
 Iter  15:  RMS(Cart)=    0.0000024818 RMS(Int)=    0.0000125547
 Iter  16:  RMS(Cart)=    0.0000012903 RMS(Int)=    0.0000065273
 Iter  17:  RMS(Cart)=    0.0000006708 RMS(Int)=    0.0000033936
 Iter  18:  RMS(Cart)=    0.0000003488 RMS(Int)=    0.0000017643
 Iter  19:  RMS(Cart)=    0.0000001813 RMS(Int)=    0.0000009173
 Iter  20:  RMS(Cart)=    0.0000000943 RMS(Int)=    0.0000004769
 Iter  21:  RMS(Cart)=    0.0000000490 RMS(Int)=    0.0000002479
 Iter  22:  RMS(Cart)=    0.0000000255 RMS(Int)=    0.0000001289
 Iter  23:  RMS(Cart)=    0.0000000132 RMS(Int)=    0.0000000670
CONVERGED
The first mode is                       ....    5
The number of degrees of freedom        ....   12
Storing new coordinates                 .... done

    -----------------------------------------------------------------
                    Redundant Internal Coordinates


    -----------------------------------------------------------------
         Definition                    Initial Value    Approx d2E/dq
    -----------------------------------------------------------------
      1. B(Br  1,C   0)                  1.7800         0.501262   
      2. B(H   2,C   0)                  1.1014         0.357866   
      3. B(H   3,C   0)                  1.1014         0.357870   
      4. B(H   4,C   0)                  1.1014         0.357873   
      5. B(Cl  5,H   3)                  2.9790         0.000566   
      6. B(Cl  5,C   0)                  3.0000         0.001607 C 
      7. B(Cl  5,H   2)                  2.9790         0.000566   
      8. B(Cl  5,H   4)                  2.9790         0.000566   
      9. A(H   2,C   0,H   3)          116.0055         0.290272   
     10. A(Br  1,C   0,H   4)          101.6870         0.361497   
     11. A(H   2,C   0,H   4)          116.0053         0.290273   
     12. A(H   3,C   0,H   4)          116.0043         0.290273   
     13. A(H   2,C   0,Cl  5)           78.3121         0.161416   
     14. A(H   3,C   0,Cl  5)           78.3131         0.161416   
     15. A(H   4,C   0,Cl  5)           78.3136         0.161416   
     16. A(Br  1,C   0,H   2)          101.6872         0.361496   
     17. A(Br  1,C   0,H   3)          101.6869         0.361497   
    -----------------------------------------------------------------

Number of atoms                         .... 6
Number of degrees of freedom            .... 17

         *************************************************************
         *                GEOMETRY OPTIMIZATION CYCLE   1            *
         *************************************************************
---------------------------------
CARTESIAN COORDINATES (ANGSTROEM)
---------------------------------
  C     -4.111380    1.258804   -0.025650
  Br    -2.348800    1.189096   -0.263839
  H     -4.216819    2.160913    0.597316
  H     -4.306625    0.298837    0.477681
  H     -4.473455    1.342866   -1.062391
  Cl    -7.082071    1.376314    0.375833

----------------------------
CARTESIAN COORDINATES (A.U.)
----------------------------
  NO LB      ZA    FRAG     MASS         X           Y           Z
   0 C     6.0000    0    12.011   -7.769382    2.378796   -0.048471
   1 Br   35.0000    0    79.900   -4.438588    2.247065   -0.498583
   2 H     1.0000    0     1.008   -7.968633    4.083533    1.128764
   3 H     1.0000    0     1.008   -8.138342    0.564720    0.902685
   4 H     1.0000    0     1.008   -8.453606    2.537649   -2.007627
   5 Cl   17.0000    0    35.453  -13.383174    2.600857    0.710221

--------------------------------
INTERNAL COORDINATES (ANGSTROEM)
--------------------------------
 C      0   0   0     0.000000000000     0.00000000     0.00000000
 Br     1   0   0     1.779966914468     0.00000000     0.00000000
 H      1   2   0     1.091693821637   108.46748422     0.00000000
 H      1   2   3     1.091690785433   108.46715783   239.99952633
 H      1   2   3     1.091688439849   108.46722708   120.00033733
 Cl     3   1   2     3.067364541981    88.73876492   180.00030939

---------------------------
INTERNAL COORDINATES (A.U.)
---------------------------
 C      0   0   0     0.000000000000     0.00000000     0.00000000
 Br     1   0   0     3.363649995785     0.00000000     0.00000000
 H      1   2   0     2.063002344987   108.46748422     0.00000000
 H      1   2   3     2.062996607394   108.46715783   239.99952633
 H      1   2   3     2.062992174882   108.46722708   120.00033733
 Cl     3   1   2     5.796478937244    88.73876492   180.00030939

---------------------
BASIS SET INFORMATION
---------------------
There are 4 groups of distinct atoms

 Group   1 Type C   : 11s6p2d1f contracted to 5s3p2d1f pattern {62111/411/11/1}
 Group   2 Type Br  : 17s13p8d1f contracted to 6s5p4d1f pattern {842111/64111/5111/1}
 Group   3 Type H   : 5s1p contracted to 3s1p pattern {311/1}
 Group   4 Type Cl  : 14s9p3d1f contracted to 5s5p2d1f pattern {73211/51111/21/1}

Atom   0C    basis set group =>   1
Atom   1Br   basis set group =>   2
Atom   2H    basis set group =>   3
Atom   3H    basis set group =>   3
Atom   4H    basis set group =>   3
Atom   5Cl   basis set group =>   4
---------------------------------
AUXILIARY/J BASIS SET INFORMATION
---------------------------------
There are 4 groups of distinct atoms

 Group   1 Type C   : 12s5p4d2f1g contracted to 6s4p3d1f1g pattern {711111/2111/211/2/1}
 Group   2 Type Br  : 19s5p5d3f1g contracted to 8s4p3d2f1g pattern {121111111/2111/311/21/1}
 Group   3 Type H   : 5s2p1d contracted to 3s1p1d pattern {311/2/1}
 Group   4 Type Cl  : 14s5p5d2f1g contracted to 8s4p3d1f1g pattern {71111111/2111/311/2/1}

Atom   0C    basis set group =>   1
Atom   1Br   basis set group =>   2
Atom   2H    basis set group =>   3
Atom   3H    basis set group =>   3
Atom   4H    basis set group =>   3
Atom   5Cl   basis set group =>   4


           ************************************************************
           *        Program running with 4 parallel MPI-processes     *
           *              working on a common directory               *
           ************************************************************
------------------------------------------------------------------------------
                           ORCA GTO INTEGRAL CALCULATION
                           -- RI-GTO INTEGRALS CHOSEN --
------------------------------------------------------------------------------
------------------------------------------------------------------------------
                   ___                                                        
                  /   \      - P O W E R E D   B Y -                         
                 /     \                                                     
                 |  |  |   _    _      __       _____    __    __             
                 |  |  |  | |  | |    /  \     |  _  \  |  |  /  |          
                  \  \/   | |  | |   /    \    | | | |  |  | /  /          
                 / \  \   | |__| |  /  /\  \   | |_| |  |  |/  /          
                |  |  |   |  __  | /  /__\  \  |    /   |      \           
                |  |  |   | |  | | |   __   |  |    \   |  |\   \          
                \     /   | |  | | |  |  |  |  | |\  \  |  | \   \       
                 \___/    |_|  |_| |__|  |__|  |_| \__\ |__|  \__/        
                                                                              
                      - O R C A' S   B I G   F R I E N D -                    
                                      &                                       
                       - I N T E G R A L  F E E D E R -                       
                                                                              
 v1 FN, 2020, v2 2021                                                         
------------------------------------------------------------------------------


Reading SHARK input file SN2_scan_ts.SHARKINP.tmp ... ok
----------------------
SHARK INTEGRAL PACKAGE
----------------------

Number of atoms                             ...      6
Number of basis functions                   ...    134
Number of shells                            ...     52
Maximum angular momentum                    ...      3
Integral batch strategy                     ... SHARK/LIBINT Hybrid
RI-J (if used) integral strategy            ... SPLIT-RIJ (Revised 2003 algorithm where possible)
Printlevel                                  ...      1
Contraction scheme used                     ... SEGMENTED contraction
Coulomb Range Separation                    ... NOT USED
Exchange Range Separation                   ... NOT USED
Finite Nucleus Model                        ... NOT USED
Auxiliary Coulomb fitting basis             ... AVAILABLE
   # of basis functions in Aux-J            ...    191
   # of shells in Aux-J                     ...     65
   Maximum angular momentum in Aux-J        ...      4
Auxiliary J/K fitting basis                 ... NOT available
Auxiliary Correlation fitting basis         ... NOT available
Auxiliary 'external' fitting basis          ... NOT available
Integral threshold                          ...     2.500000e-11
Primitive cut-off                           ...     2.500000e-12
Primitive pair pre-selection threshold      ...     2.500000e-12

Calculating pre-screening integrals         ... done (  0.0 sec) Dimension = 52
Organizing shell pair data                  ... done (  0.0 sec)
Shell pair information
Total number of shell pairs                 ...      1378
Shell pairs after pre-screening             ...      1255
Total number of primitive shell pairs       ...      5593
Primitive shell pairs kept                  ...      3923
          la=0 lb=0:    290 shell pairs
          la=1 lb=0:    364 shell pairs
          la=1 lb=1:    126 shell pairs
          la=2 lb=0:    183 shell pairs
          la=2 lb=1:    117 shell pairs
          la=2 lb=2:     34 shell pairs
          la=3 lb=0:     68 shell pairs
          la=3 lb=1:     44 shell pairs
          la=3 lb=2:     23 shell pairs
          la=3 lb=3:      6 shell pairs

Calculating one electron integrals          ... done (  0.0 sec)
Calculating RI/J V-Matrix + Cholesky decomp.... done (  0.0 sec)
Calculating Nuclear repulsion               ... done (  0.0 sec) ENN=    189.276728342194 Eh

SHARK setup successfully completed in   0.1 seconds

Maximum memory used throughout the entire GTOINT-calculation: 18.6 MB


           ************************************************************
           *        Program running with 4 parallel MPI-processes     *
           *              working on a common directory               *
           ************************************************************
-------------------------------------------------------------------------------
                                 ORCA SCF
-------------------------------------------------------------------------------

------------
SCF SETTINGS
------------
Hamiltonian:
 Density Functional     Method          .... DFT(GTOs)
 Exchange Functional    Exchange        .... PBE
   PBE kappa parameter   XKappa         ....  0.804000
   PBE mue parameter    XMuePBE         ....  0.219520
 Correlation Functional Correlation     .... PBE
   PBE beta parameter  CBetaPBE         ....  0.066725
 LDA part of GGA corr.  LDAOpt          .... PW91-LDA
 Gradients option       PostSCFGGA      .... off
   Density functional embedding theory  .... OFF
   NL short-range parameter             ....  6.400000
 RI-approximation to the Coulomb term is turned on
   Number of AuxJ basis functions       .... 191


General Settings:
 Integral files         IntName         .... SN2_scan_ts
 Hartree-Fock type      HFTyp           .... RHF
 Total Charge           Charge          ....   -1
 Multiplicity           Mult            ....    1
 Number of Electrons    NEL             ....   62
 Basis Dimension        Dim             ....  134
 Nuclear Repulsion      ENuc            ....    189.2767283422 Eh

Convergence Acceleration:
 DIIS                   CNVDIIS         .... on
   Start iteration      DIISMaxIt       ....     0
   Startup error        DIISStart       ....  0.200000
   # of expansion vecs  DIISMaxEq       ....     5
   Bias factor          DIISBfac        ....   1.050
   Max. coefficient     DIISMaxC        ....  10.000
 Trust-Rad. Augm. Hess. CNVTRAH         .... auto
   Auto Start mean grad. ratio tolernc. ....  1.125000
   Auto Start start iteration           ....    20
   Auto Start num. interpolation iter.  ....    10
   Max. Number of Micro iterations      ....    16
   Max. Number of Macro iterations      .... Maxiter - #DIIS iter
   Number of Davidson start vectors     ....     2
   Converg. threshold I  (grad. norm)   ....   1.000e-05
   Converg. threshold II (energy diff.) ....   1.000e-08
   Grad. Scal. Fac. for Micro threshold ....   0.100
   Minimum threshold for Micro iter.    ....   0.010
   NR start threshold (gradient norm)   ....   0.001
   Initial trust radius                 ....   0.400
   Minimum AH scaling param. (alpha)    ....   1.000
   Maximum AH scaling param. (alpha)    .... 1000.000
   Orbital update algorithm             .... Taylor
   White noise on init. David. guess    .... on
   Maximum white noise                  ....   0.010
   Quad. conv. algorithm                .... NR
 SOSCF                  CNVSOSCF        .... on
   Start iteration      SOSCFMaxIt      ....   150
   Startup grad/error   SOSCFStart      ....  0.001000
 Level Shifting         CNVShift        .... on
   Level shift para.    LevelShift      ....    0.2500
   Turn off err/grad.   ShiftErr        ....    0.0000
 Zerner damping         CNVZerner       .... off
 Static damping         CNVDamp         .... on
   Fraction old density DampFac         ....    0.8500
   Max. Damping (<1)    DampMax         ....    0.9800
   Min. Damping (>=0)   DampMin         ....    0.0000
   Turn off err/grad.   DampErr         ....    0.0300
 Fernandez-Rico         CNVRico         .... off

SCF Procedure:
 Maximum # iterations   MaxIter         ....   125
 SCF integral mode      SCFMode         .... Direct
   Integral package                     .... SHARK and LIBINT hybrid scheme
 Reset frequency        DirectResetFreq ....    20
 Integral Threshold     Thresh          ....  2.500e-11 Eh
 Primitive CutOff       TCut            ....  2.500e-12 Eh

Convergence Tolerance:
 Convergence Check Mode ConvCheckMode   .... Total+1el-Energy
 Convergence forced     ConvForced      .... 0
 Energy Change          TolE            ....  1.000e-08 Eh
 1-El. energy change                    ....  1.000e-05 Eh
 Orbital Gradient       TolG            ....  1.000e-05
 Orbital Rotation angle TolX            ....  1.000e-05
 DIIS Error             TolErr          ....  5.000e-07


Diagonalization of the overlap matrix:
Smallest eigenvalue                        ... 1.645e-03
Time for diagonalization                   ...    0.002 sec
Threshold for overlap eigenvalues          ... 1.000e-08
Number of eigenvalues below threshold      ... 0
Time for construction of square roots      ...    0.002 sec
Total time needed                          ...    0.004 sec

Time for model grid setup =    0.046 sec

------------------------------
INITIAL GUESS: MODEL POTENTIAL
------------------------------
Loading Hartree-Fock densities                     ... done
Calculating cut-offs                               ... done
Initializing the effective Hamiltonian             ... done
Setting up the integral package (SHARK)            ... done
Starting the Coulomb interaction                   ... done (   0.0 sec)
Reading the grid                                   ... done
Mapping shells                                     ... done
Starting the XC term evaluation                    ... done (   0.0 sec)
  promolecular density results
     # of electrons  =     60.998877147
     EX              =   -122.636185862
     EC              =     -2.655064589
     EX+EC           =   -125.291250451
Transforming the Hamiltonian                       ... done (   0.0 sec)
Diagonalizing the Hamiltonian                      ... done (   0.0 sec)
Back transforming the eigenvectors                 ... done (   0.0 sec)
Now organizing SCF variables                       ... done
                      ------------------
                      INITIAL GUESS DONE (   0.1 sec)
                      ------------------
-------------------
DFT GRID GENERATION
-------------------

General Integration Accuracy     IntAcc      ... 4.388
Radial Grid Type                 RadialGrid  ... OptM3 with GC (2021)
Angular Grid (max. ang.)         AngularGrid ... 4 (Lebedev-302)
Angular grid pruning method      GridPruning ... 4 (adaptive)
Weight generation scheme         WeightScheme... Becke
Basis function cutoff            BFCut       ... 1.0000e-11
Integration weight cutoff        WCut        ... 1.0000e-14
Angular grids for H and He will be reduced by one unit
Partially contracted basis set               ... off
Rotationally invariant grid construction     ... off

Total number of grid points                  ...    34585
Total number of batches                      ...      544
Average number of points per batch           ...       63
Average number of grid points per atom       ...     5764
Time for grid setup =    0.325 sec

--------------
SCF ITERATIONS
--------------
ITER       Energy         Delta-E        Max-DP      RMS-DP      [F,P]     Damp
               ***  Starting incremental Fock matrix formation  ***
  0  -3073.5871919795   0.000000000000 0.05250766  0.00118013  0.1709156 0.8500
  1  -3073.6205622668  -0.033370287304 0.05099480  0.00134216  0.1243722 0.8500
                               ***Turning on DIIS***
  2  -3073.6422023591  -0.021640092252 0.04570448  0.00114282  0.0844328 0.8500
  3  -3073.6550564158  -0.012854056721 0.02671424  0.00069699  0.0536162 0.8500
  4  -3073.6641302655  -0.009073849726 0.01764490  0.00043635  0.0372883 0.8500
  5  -3073.6710251470  -0.006894881524 0.07584538  0.00191987  0.0281540 0.0000
  6  -3073.7054540098  -0.034428862768 0.02082602  0.00041930  0.0086880 0.0000
  7  -3073.7057636174  -0.000309607591 0.00984036  0.00018615  0.0029157 0.0000
                      *** Initiating the SOSCF procedure ***
                           *** Shutting down DIIS ***
                      *** Re-Reading the Fockian *** 
                      *** Removing any level shift *** 
ITER      Energy       Delta-E        Grad      Rot      Max-DP    RMS-DP
  8  -3073.70580393  -0.0000403093  0.000728  0.000728  0.005096  0.000096
               *** Restarting incremental Fock matrix formation ***
  9  -3073.70581190  -0.0000079701  0.000441  0.003150  0.006827  0.000132
 10  -3073.70581473  -0.0000028329  0.000192  0.000251  0.000738  0.000018
 11  -3073.70581500  -0.0000002745  0.000144  0.000294  0.000668  0.000015
 12  -3073.70581528  -0.0000002796  0.000029  0.000073  0.000099  0.000003
 13  -3073.70581528   0.0000000006  0.000021  0.000024  0.000051  0.000001
 14  -3073.70581529  -0.0000000109  0.000010  0.000015  0.000028  0.000001
 15  -3073.70581530  -0.0000000026  0.000005  0.000004  0.000010  0.000000
                  ***Gradient check signals convergence***
              ***Rediagonalizing the Fockian in SOSCF/NRSCF***

               *****************************************************
               *                     SUCCESS                       *
               *           SCF CONVERGED AFTER  16 CYCLES          *
               *****************************************************


----------------
TOTAL SCF ENERGY
----------------

Total Energy       :        -3073.70581530 Eh          -83639.78740 eV

Components:
Nuclear Repulsion  :          189.27672834 Eh            5150.48162 eV
Electronic Energy  :        -3262.98254364 Eh          -88790.26902 eV
One Electron Energy:        -4660.03698852 Eh         -126806.05315 eV
Two Electron Energy:         1397.05444488 Eh           38015.78413 eV

Virial components:
Potential Energy   :        -6143.21409822 Eh         -167165.35413 eV
Kinetic Energy     :         3069.50828292 Eh           83525.56674 eV
Virial Ratio       :            2.00136749


DFT components:
N(Alpha)           :       31.000001757948 electrons
N(Beta)            :       31.000001757948 electrons
N(Total)           :       62.000003515897 electrons
E(X)               :     -123.037917999769 Eh       
E(C)               :       -2.690968068705 Eh       
E(XC)              :     -125.728886068474 Eh       
DFET-embed. en.    :        0.000000000000 Eh       

---------------
SCF CONVERGENCE
---------------

  Last Energy change         ...   -3.2833e-09  Tolerance :   1.0000e-08
  Last MAX-Density change    ...    9.8790e-06  Tolerance :   1.0000e-07
  Last RMS-Density change    ...    2.0624e-07  Tolerance :   5.0000e-09
  Last Orbital Gradient      ...    1.5028e-06  Tolerance :   1.0000e-05
  Last Orbital Rotation      ...    4.4166e-06  Tolerance :   1.0000e-05

             **** THE GBW FILE WAS UPDATED (SN2_scan_ts.gbw) ****
             **** DENSITY SN2_scan_ts.scfp WAS UPDATED ****
             **** ENERGY FILE WAS UPDATED (SN2_scan_ts.en.tmp) ****
             **** THE GBW FILE WAS UPDATED (SN2_scan_ts.gbw) ****
             **** DENSITY SN2_scan_ts.scfp WAS UPDATED ****
----------------
ORBITAL ENERGIES
----------------

  NO   OCC          E(Eh)            E(eV) 
   0   2.0000    -480.859136    -13084.8423 
   1   2.0000    -100.331967     -2730.1716 
   2   2.0000     -61.665539     -1678.0046 
   3   2.0000     -55.578469     -1512.3670 
   4   2.0000     -55.576207     -1512.3055 
   5   2.0000     -55.576207     -1512.3055 
   6   2.0000      -9.770278      -265.8628 
   7   2.0000      -8.845323      -240.6935 
   8   2.0000      -8.263068      -224.8495 
   9   2.0000      -6.662212      -181.2880 
  10   2.0000      -6.661891      -181.2793 
  11   2.0000      -6.661891      -181.2793 
  12   2.0000      -6.139040      -167.0518 
  13   2.0000      -6.129547      -166.7935 
  14   2.0000      -6.129547      -166.7934 
  15   2.0000      -2.341699       -63.7209 
  16   2.0000      -2.338964       -63.6464 
  17   2.0000      -2.338961       -63.6464 
  18   2.0000      -2.331582       -63.4456 
  19   2.0000      -2.331578       -63.4455 
  20   2.0000      -0.632668       -17.2158 
  21   2.0000      -0.437273       -11.8988 
  22   2.0000      -0.405882       -11.0446 
  23   2.0000      -0.261249        -7.1089 
  24   2.0000      -0.261247        -7.1089 
  25   2.0000      -0.205344        -5.5877 
  26   2.0000      -0.100944        -2.7468 
  27   2.0000      -0.100944        -2.7468 
  28   2.0000       0.011270         0.3067 
  29   2.0000       0.011837         0.3221 
  30   2.0000       0.011837         0.3221 
  31   0.0000       0.150791         4.1032 
  32   0.0000       0.171589         4.6692 
  33   0.0000       0.216264         5.8848 
  34   0.0000       0.216266         5.8849 
  35   0.0000       0.283782         7.7221 
  36   0.0000       0.317896         8.6504 
  37   0.0000       0.317899         8.6505 
  38   0.0000       0.364005         9.9051 
  39   0.0000       0.364009         9.9052 
  40   0.0000       0.369193        10.0463 
  41   0.0000       0.422256        11.4902 
  42   0.0000       0.422261        11.4903 
  43   0.0000       0.463141        12.6027 
  44   0.0000       0.463146        12.6028 
  45   0.0000       0.505468        13.7545 
  46   0.0000       0.551722        15.0131 
  47   0.0000       0.551724        15.0132 
  48   0.0000       0.567864        15.4524 
  49   0.0000       0.590711        16.0741 
  50   0.0000       0.590714        16.0742 
  51   0.0000       0.619362        16.8537 
  52   0.0000       0.648992        17.6600 
  53   0.0000       0.678279        18.4569 
  54   0.0000       0.678279        18.4569 
  55   0.0000       0.689706        18.7679 
  56   0.0000       0.689707        18.7679 
  57   0.0000       0.691657        18.8209 
  58   0.0000       0.930077        25.3087 
  59   0.0000       0.930078        25.3087 
  60   0.0000       0.945707        25.7340 
  61   0.0000       1.028356        27.9830 
  62   0.0000       1.028359        27.9831 
  63   0.0000       1.030351        28.0373 
  64   0.0000       1.084416        29.5085 
  65   0.0000       1.355803        36.8933 
  66   0.0000       1.355804        36.8933 
  67   0.0000       1.424976        38.7756 
  68   0.0000       1.424980        38.7757 
  69   0.0000       1.478715        40.2379 
  70   0.0000       1.523697        41.4619 
  71   0.0000       1.523699        41.4619 
  72   0.0000       1.542390        41.9706 
  73   0.0000       1.588004        43.2118 
  74   0.0000       1.602970        43.6190 
  75   0.0000       1.605444        43.6864 
  76   0.0000       1.656532        45.0765 
  77   0.0000       1.656536        45.0766 
  78   0.0000       1.658047        45.1178 
  79   0.0000       1.688951        45.9587 
  80   0.0000       1.688952        45.9587 
  81   0.0000       1.790035        48.7093 
  82   0.0000       1.807334        49.1801 
  83   0.0000       1.807335        49.1801 
  84   0.0000       1.947877        53.0044 
  85   0.0000       1.947887        53.0047 
  86   0.0000       1.951297        53.0975 
  87   0.0000       1.967760        53.5455 
  88   0.0000       1.967761        53.5455 
  89   0.0000       2.143401        58.3249 
  90   0.0000       2.143410        58.3252 
  91   0.0000       2.173517        59.1444 
  92   0.0000       2.240570        60.9690 
  93   0.0000       2.283381        62.1339 
  94   0.0000       2.283388        62.1341 
  95   0.0000       2.305671        62.7405 
  96   0.0000       2.305939        62.7478 
  97   0.0000       2.305953        62.7482 
  98   0.0000       2.305966        62.7485 
  99   0.0000       2.315883        63.0184 
 100   0.0000       2.315884        63.0184 
 101   0.0000       2.390737        65.0553 
 102   0.0000       2.419136        65.8281 
 103   0.0000       2.419140        65.8282 
 104   0.0000       2.468960        67.1838 
 105   0.0000       2.632039        71.6214 
 106   0.0000       2.632043        71.6215 
 107   0.0000       2.725683        74.1696 
 108   0.0000       2.725689        74.1698 
 109   0.0000       2.736395        74.4611 
 110   0.0000       2.817781        76.6757 
 111   0.0000       3.148720        85.6810 
 112   0.0000       3.148726        85.6812 
 113   0.0000       3.324562        90.4659 
 114   0.0000       3.324568        90.4661 
 115   0.0000       3.515526        95.6623 
 116   0.0000       3.530733        96.0761 
 117   0.0000       3.530739        96.0763 
 118   0.0000       3.591049        97.7174 
 119   0.0000       3.881008       105.6076 
 120   0.0000       4.049784       110.2002 
 121   0.0000       4.049791       110.2004 
 122   0.0000       4.158916       113.1699 
 123   0.0000       4.158926       113.1701 
 124   0.0000       4.246190       115.5447 
 125   0.0000       4.246192       115.5448 
 126   0.0000       4.480452       121.9193 
 127   0.0000       4.618358       125.6719 
 128   0.0000       7.742595       210.6867 
 129   0.0000      10.809526       294.1422 
 130   0.0000      10.809529       294.1422 
 131   0.0000      10.848079       295.1912 
 132   0.0000      21.969639       597.8243 
 133   0.0000      24.178604       657.9333 

                    ********************************
                    * MULLIKEN POPULATION ANALYSIS *
                    ********************************

-----------------------
MULLIKEN ATOMIC CHARGES
-----------------------
   0 C :   -0.229553
   1 Br:   -0.232704
   2 H :    0.119403
   3 H :    0.119398
   4 H :    0.119403
   5 Cl:   -0.895947
Sum of atomic charges:   -1.0000000

--------------------------------
MULLIKEN REDUCED ORBITAL CHARGES
--------------------------------
  0 C s       :     3.215738  s :     3.215738
      pz      :     1.063200  p :     2.940420
      px      :     0.809716
      py      :     1.067504
      dz2     :     0.010407  d :     0.069791
      dxz     :     0.016977
      dyz     :     0.003067
      dx2y2   :     0.022240
      dxy     :     0.017100
      f0      :     0.000709  f :     0.003604
      f+1     :     0.000389
      f-1     :     0.000074
      f+2     :     0.001163
      f-2     :    -0.000022
      f+3     :     0.000466
      f-3     :     0.000825
  1 Brs       :     7.880899  s :     7.880899
      pz      :     5.964925  p :    17.252918
      px      :     5.311964
      py      :     5.976029
      dz2     :     2.006711  d :    10.087759
      dxz     :     2.029524
      dyz     :     2.002302
      dx2y2   :     2.021662
      dxy     :     2.027560
      f0      :     0.001309  f :     0.011128
      f+1     :     0.001563
      f-1     :     0.000124
      f+2     :     0.002086
      f-2     :     0.000454
      f+3     :     0.002814
      f-3     :     0.002777
  2 H s       :     0.858871  s :     0.858871
      pz      :     0.006876  p :     0.021726
      px      :     0.005095
      py      :     0.009755
  3 H s       :     0.858875  s :     0.858875
      pz      :     0.005908  p :     0.021727
      px      :     0.005435
      py      :     0.010384
  4 H s       :     0.858871  s :     0.858871
      pz      :     0.011296  p :     0.021726
      px      :     0.006365
      py      :     0.004064
  5 Cls       :     5.985218  s :     5.985218
      pz      :     3.985562  p :    11.909339
      px      :     3.937396
      py      :     3.986381
      dz2     :     0.000228  d :     0.001339
      dxz     :     0.000235
      dyz     :     0.000000
      dx2y2   :     0.000664
      dxy     :     0.000212
      f0      :     0.000004  f :     0.000051
      f+1     :     0.000011
      f-1     :     0.000001
      f+2     :     0.000008
      f-2     :     0.000000
      f+3     :     0.000016
      f-3     :     0.000011


                     *******************************
                     * LOEWDIN POPULATION ANALYSIS *
                     *******************************

----------------------
LOEWDIN ATOMIC CHARGES
----------------------
   0 C :   -0.668405
   1 Br:    0.165665
   2 H :    0.112454
   3 H :    0.112453
   4 H :    0.112453
   5 Cl:   -0.834621

-------------------------------
LOEWDIN REDUCED ORBITAL CHARGES
-------------------------------
  0 C s       :     2.948943  s :     2.948943
      pz      :     1.118247  p :     3.327429
      px      :     1.090464
      py      :     1.118718
      dz2     :     0.049827  d :     0.362445
      dxz     :     0.087107
      dyz     :     0.036882
      dx2y2   :     0.114718
      dxy     :     0.073912
      f0      :     0.004618  f :     0.029588
      f+1     :     0.004738
      f-1     :     0.000767
      f+2     :     0.005950
      f-2     :     0.000528
      f+3     :     0.004889
      f-3     :     0.008098
  1 Brs       :     7.520403  s :     7.520403
      pz      :     5.872032  p :    17.074199
      px      :     5.320759
      py      :     5.881408
      dz2     :     2.019194  d :    10.212833
      dxz     :     2.067223
      dyz     :     2.003618
      dx2y2   :     2.059237
      dxy     :     2.063561
      f0      :     0.003182  f :     0.026901
      f+1     :     0.003710
      f-1     :     0.000390
      f+2     :     0.005365
      f-2     :     0.000739
      f+3     :     0.005944
      f-3     :     0.007572
  2 H s       :     0.824020  s :     0.824020
      pz      :     0.020846  p :     0.063526
      px      :     0.012653
      py      :     0.030028
  3 H s       :     0.824020  s :     0.824020
      pz      :     0.017849  p :     0.063527
      px      :     0.013502
      py      :     0.032175
  4 H s       :     0.824020  s :     0.824020
      pz      :     0.035239  p :     0.063527
      px      :     0.016017
      py      :     0.012271
  5 Cls       :     5.964386  s :     5.964386
      pz      :     3.984798  p :    11.867961
      px      :     3.896870
      py      :     3.986293
      dz2     :     0.000374  d :     0.002192
      dxz     :     0.000388
      dyz     :     0.000000
      dx2y2   :     0.001075
      dxy     :     0.000355
      f0      :     0.000005  f :     0.000082
      f+1     :     0.000020
      f-1     :     0.000001
      f+2     :     0.000011
      f-2     :     0.000000
      f+3     :     0.000031
      f-3     :     0.000014


                      *****************************
                      * MAYER POPULATION ANALYSIS *
                      *****************************

  NA   - Mulliken gross atomic population
  ZA   - Total nuclear charge
  QA   - Mulliken gross atomic charge
  VA   - Mayer's total valence
  BVA  - Mayer's bonded valence
  FA   - Mayer's free valence

  ATOM       NA         ZA         QA         VA         BVA        FA
  0 C      6.2296     6.0000    -0.2296     3.9261     3.9261     0.0000
  1 Br    35.2327    35.0000    -0.2327     1.0725     1.0725    -0.0000
  2 H      0.8806     1.0000     0.1194     1.0134     1.0134    -0.0000
  3 H      0.8806     1.0000     0.1194     1.0134     1.0134     0.0000
  4 H      0.8806     1.0000     0.1194     1.0134     1.0134    -0.0000
  5 Cl    17.8959    17.0000    -0.8959     0.1963     0.1963    -0.0000

  Mayer bond orders larger than 0.100000
B(  0-C ,  1-Br) :   1.0170 B(  0-C ,  2-H ) :   0.9609 B(  0-C ,  3-H ) :   0.9609 
B(  0-C ,  4-H ) :   0.9609 

-------
TIMINGS
-------

Total SCF time: 0 days 0 hours 0 min 3 sec 

Total time                  ....       3.424 sec
Sum of individual times     ....       3.284 sec  ( 95.9%)

Fock matrix formation       ....       2.687 sec  ( 78.5%)
  Split-RI-J                ....       0.760 sec  ( 28.3% of F)
  XC integration            ....       1.862 sec  ( 69.3% of F)
    Basis function eval.    ....       0.457 sec  ( 24.5% of XC)
    Density eval.           ....       0.462 sec  ( 24.8% of XC)
    XC-Functional eval.     ....       0.116 sec  (  6.2% of XC)
    XC-Potential eval.      ....       0.459 sec  ( 24.6% of XC)
Diagonalization             ....       0.052 sec  (  1.5%)
Density matrix formation    ....       0.008 sec  (  0.2%)
Population analysis         ....       0.013 sec  (  0.4%)
Initial guess               ....       0.073 sec  (  2.1%)
Orbital Transformation      ....       0.000 sec  (  0.0%)
Orbital Orthonormalization  ....       0.000 sec  (  0.0%)
DIIS solution               ....       0.038 sec  (  1.1%)
SOSCF solution              ....       0.043 sec  (  1.2%)
Grid generation             ....       0.371 sec  ( 10.8%)

Maximum memory used throughout the entire SCF-calculation: 14.8 MB


-------------------------------------------------------------------------------
                          DFT DISPERSION CORRECTION                            
                                                                               
                              DFTD3 V3.1  Rev 1                                
                          USING Becke-Johnson damping                          
-------------------------------------------------------------------------------
The PBE functional is recognized
Active option DFTDOPT                   ...         4   

molecular C6(AA) [au] = 1031.316459 


            DFT-D V3
 parameters
 s6 scaling factor         :     1.0000 
 a1 scaling factor         :     0.4289 
 s8 scaling factor         :     0.7875 
 a2 scaling factor         :     4.4407 
 ad hoc parameters k1-k3   :    16.0000     1.3333    -4.0000 

 Edisp/kcal,au: -2.412081300788  -0.003843895819 
 E6   /kcal   :  -1.614788800 
 E8   /kcal   :  -0.797292501 
 % E8         :  33.054130501 

-------------------------   ----------------
Dispersion correction           -0.003843896
-------------------------   ----------------


-------------------------   --------------------
FINAL SINGLE POINT ENERGY     -3073.709659195940
-------------------------   --------------------



           ************************************************************
           *        Program running with 4 parallel MPI-processes     *
           *              working on a common directory               *
           ************************************************************
------------------------------------------------------------------------------
                         ORCA SCF GRADIENT CALCULATION
------------------------------------------------------------------------------

Gradient of the Kohn-Sham DFT energy:
Kohn-Sham wavefunction type      ... RKS
Hartree-Fock exchange scaling    ...    0.000
Number of operators              ...    1
Number of atoms                  ...    6
Basis set dimensions             ...  134
Integral neglect threshold       ... 2.5e-11
Integral primitive cutoff        ... 2.5e-12
SHARK Integral package           ... ON

Nuc. rep. gradient       (SHARK) ... done (  0.0 sec)
HCore & Overlap gradient (SHARK) ... done (  0.1 sec)
RI-J gradient            (SHARK) ... done (  0.5 sec)
Exchange-correlation gradient    ... done
Dispersion correction            ... done

------------------
CARTESIAN GRADIENT
------------------

   1   C   :    0.060467849   -0.002399874   -0.008169340
   2   Br  :   -0.123142872    0.004884152    0.016639968
   3   H   :    0.021399610    0.010829110    0.005020108
   4   H   :    0.020234624   -0.013381425    0.003466943
   5   H   :    0.018066326    0.000184947   -0.016553208
   6   Cl  :    0.002974462   -0.000116910   -0.000404470

Difference to translation invariance:
           :   -0.0000000007    0.0000000004   -0.0000000000

Difference to rotation invariance:
           :   -0.0000137838   -0.0000129082    0.0000517378

Norm of the cartesian gradient     ...    0.1449281371
RMS gradient                       ...    0.0341598895
MAX gradient                       ...    0.1231428717

-------
TIMINGS
-------

Total SCF gradient time            ...        1.507 sec

One electron gradient       ....       0.050 sec  (  3.3%)
RI-J Coulomb gradient       ....       0.464 sec  ( 30.8%)
XC gradient                 ....       0.826 sec  ( 54.8%)

Maximum memory used throughout the entire SCFGRAD-calculation: 27.5 MB
------------------------------------------------------------------------------
                         ORCA GEOMETRY RELAXATION STEP
------------------------------------------------------------------------------

Reading the OPT-File                    .... done
Getting information on internals        .... done
Copying old internal coords+grads       .... done
Making the new internal coordinates     .... (new redundants).... done
Validating the new internal coordinates .... (new redundants).... done
Calculating the B-matrix                .... done
Calculating the G,G- and P matrices     .... done
Transforming gradient to internals      .... done
Projecting the internal gradient        .... done
Number of atoms                         ....   6
Number of internal coordinates          ....  17
Current Energy                          .... -3073.709659196 Eh
Current gradient norm                   ....     0.144928137 Eh/bohr
Maximum allowed component of the step   ....  0.300
Current trust radius                    ....  0.300
Evaluating the initial hessian          ....  (Almloef) done
Projecting the Hessian                  .... done
Forming the augmented Hessian           .... done
Diagonalizing the augmented Hessian     .... done
Last element of RFO vector              ....  0.949131999
Lowest eigenvalues of augmented Hessian:
 -0.036640703  0.034354022  0.034354218  0.106299731  0.287061206
Length of the computed step             ....  0.331754137
Warning: the length of the step is outside the trust region - taking restricted step instead
The input lambda is                     ....    -0.036641
   iter:   1  x=   -0.056225  g=    1.024344 f(x)=     0.020061
   iter:   2  x=   -0.060496  g=    0.730588 f(x)=     0.003121
   iter:   3  x=   -0.060645  g=    0.683604 f(x)=     0.000102
   iter:   4  x=   -0.060645  g=    0.682046 f(x)=     0.000000
   iter:   5  x=   -0.060645  g=    0.682045 f(x)=     0.000000
   iter:   6  x=   -0.060645  g=    0.682045 f(x)=     0.000000
The output lambda is                    ....    -0.060645 (6 iterations)
The final length of the internal step   ....  0.300000000
Converting the step to cartesian space:
 Initial RMS(Int)=    0.0727606875
Transforming coordinates:
 Iter   0:  RMS(Cart)=    0.0603090885 RMS(Int)=    0.0692536093
 Iter   1:  RMS(Cart)=    0.0043441265 RMS(Int)=    0.0052819781
 Iter   2:  RMS(Cart)=    0.0000300166 RMS(Int)=    0.0000307596
 Iter   3:  RMS(Cart)=    0.0000006564 RMS(Int)=    0.0000009936
 Iter   4:  RMS(Cart)=    0.0000000431 RMS(Int)=    0.0000000499
Imposing constraints:
 Iter   0:  RMS(Cart)=    0.0001197807 RMS(Int)=    0.0005240375
 Iter   1:  RMS(Cart)=    0.0000582334 RMS(Int)=    0.0002547698
 Iter   2:  RMS(Cart)=    0.0000283112 RMS(Int)=    0.0001238607
 Iter   3:  RMS(Cart)=    0.0000137640 RMS(Int)=    0.0000602170
 Iter   4:  RMS(Cart)=    0.0000066916 RMS(Int)=    0.0000292755
 Iter   5:  RMS(Cart)=    0.0000032532 RMS(Int)=    0.0000142328
 Iter   6:  RMS(Cart)=    0.0000015816 RMS(Int)=    0.0000069195
 Iter   7:  RMS(Cart)=    0.0000007689 RMS(Int)=    0.0000033640
 Iter   8:  RMS(Cart)=    0.0000003738 RMS(Int)=    0.0000016355
 Iter   9:  RMS(Cart)=    0.0000001817 RMS(Int)=    0.0000007951
 Iter  10:  RMS(Cart)=    0.0000000884 RMS(Int)=    0.0000003866
 Iter  11:  RMS(Cart)=    0.0000000430 RMS(Int)=    0.0000001879
 Iter  12:  RMS(Cart)=    0.0000000209 RMS(Int)=    0.0000000914
CONVERGED
done
Storing new coordinates                 .... done

                                .--------------------.
          ----------------------|Geometry convergence|-------------------------
          Item                value                   Tolerance       Converged
          ---------------------------------------------------------------------
          RMS gradient        0.0312602417            0.0001000000      NO
          MAX gradient        0.1243579917            0.0003000000      NO
          RMS step            0.0727606875            0.0020000000      NO
          MAX step            0.2213138200            0.0040000000      NO
          ........................................................
          Max(Bonds)      0.1171      Max(Angles)    2.49
          Max(Dihed)        0.00      Max(Improp)    0.00
          ---------------------------------------------------------------------

The optimization has not yet converged - more geometry cycles are needed


    ---------------------------------------------------------------------------
                         Redundant Internal Coordinates
                            (Angstroem and degrees)

        Definition                    Value    dE/dq     Step     New-Value
    ----------------------------------------------------------------------------
     1. B(Br  1,C   0)                1.7800 -0.124358  0.1171    1.8971   
     2. B(H   2,C   0)                1.1014  0.008479 -0.0114    1.0900   
     3. B(H   3,C   0)                1.1014  0.008478 -0.0114    1.0900   
     4. B(H   4,C   0)                1.1014  0.008475 -0.0114    1.0900   
     5. B(Cl  5,H   3)                2.9790  0.007143 -0.0491    2.9299   
     6. B(Cl  5,C   0)                3.0000 -0.022955 -0.0000    3.0000 C 
     7. B(Cl  5,H   2)                2.9790  0.007128 -0.0491    2.9299   
     8. B(Cl  5,H   4)                2.9790  0.007132 -0.0491    2.9299   
     9. A(H   2,C   0,H   3)          116.01  0.008752   -1.65    114.36   
    10. A(Br  1,C   0,H   4)          101.69 -0.013223    2.49    104.18   
    11. A(H   2,C   0,H   4)          116.01  0.008755   -1.65    114.36   
    12. A(H   3,C   0,H   4)          116.00  0.008746   -1.65    114.36   
    13. A(H   2,C   0,Cl  5)           78.31  0.013213   -2.49     75.82   
    14. A(H   3,C   0,Cl  5)           78.31  0.013221   -2.49     75.82   
    15. A(H   4,C   0,Cl  5)           78.31  0.013216   -2.49     75.82   
    16. A(Br  1,C   0,H   2)          101.69 -0.013232    2.49    104.18   
    17. A(Br  1,C   0,H   3)          101.69 -0.013194    2.49    104.17   
    ----------------------------------------------------------------------------

         *************************************************************
         *                GEOMETRY OPTIMIZATION CYCLE   2            *
         *************************************************************
---------------------------------
CARTESIAN COORDINATES (ANGSTROEM)
---------------------------------
  C     -4.109027    1.258745   -0.025975
  Br    -2.230478    1.184328   -0.279811
  H     -4.260149    2.144548    0.590881
  H     -4.348162    0.320042    0.473670
  H     -4.511616    1.343014   -1.035342
  Cl    -7.079719    1.376153    0.375527

----------------------------
CARTESIAN COORDINATES (A.U.)
----------------------------
  NO LB      ZA    FRAG     MASS         X           Y           Z
   0 C     6.0000    0    12.011   -7.764935    2.378683   -0.049086
   1 Br   35.0000    0    79.900   -4.214992    2.238055   -0.528766
   2 H     1.0000    0     1.008   -8.050515    4.052609    1.116603
   3 H     1.0000    0     1.008   -8.216836    0.604792    0.895107
   4 H     1.0000    0     1.008   -8.525718    2.537929   -1.956513
   5 Cl   17.0000    0    35.453  -13.378729    2.600552    0.709644

--------------------------------
INTERNAL COORDINATES (ANGSTROEM)
--------------------------------
 C      0   0   0     0.000000000000     0.00000000     0.00000000
 Br     1   0   0     1.897081143886     0.00000000     0.00000000
 H      1   2   0     1.089952595529   104.17601288     0.00000000
 H      1   2   3     1.089951807228   104.17060643   240.00009353
 H      1   2   3     1.089954397191   104.17459212   120.00097472
 Cl     4   1   2     2.930256234133    83.03673494   180.00073130

---------------------------
INTERNAL COORDINATES (A.U.)
---------------------------
 C      0   0   0     0.000000000000     0.00000000     0.00000000
 Br     1   0   0     3.584963815770     0.00000000     0.00000000
 H      1   2   0     2.059711904506   104.17601288     0.00000000
 H      1   2   3     2.059710414834   104.17060643   240.00009353
 H      1   2   3     2.059715309154   104.17459212   120.00097472
 Cl     4   1   2     5.537381784727    83.03673494   180.00073130



           ************************************************************
           *        Program running with 4 parallel MPI-processes     *
           *              working on a common directory               *
           ************************************************************
------------------------------------------------------------------------------
                   ___                                                        
                  /   \      - P O W E R E D   B Y -                         
                 /     \                                                     
                 |  |  |   _    _      __       _____    __    __             
                 |  |  |  | |  | |    /  \     |  _  \  |  |  /  |          
                  \  \/   | |  | |   /    \    | | | |  |  | /  /          
                 / \  \   | |__| |  /  /\  \   | |_| |  |  |/  /          
                |  |  |   |  __  | /  /__\  \  |    /   |      \           
                |  |  |   | |  | | |   __   |  |    \   |  |\   \          
                \     /   | |  | | |  |  |  |  | |\  \  |  | \   \       
                 \___/    |_|  |_| |__|  |__|  |_| \__\ |__|  \__/        
                                                                              
                      - O R C A' S   B I G   F R I E N D -                    
                                      &                                       
                       - I N T E G R A L  F E E D E R -                       
                                                                              
 v1 FN, 2020, v2 2021                                                         
------------------------------------------------------------------------------


Reading SHARK input file SN2_scan_ts.SHARKINP.tmp ... ok
----------------------
SHARK INTEGRAL PACKAGE
----------------------

Number of atoms                             ...      6
Number of basis functions                   ...    134
Number of shells                            ...     52
Maximum angular momentum                    ...      3
Integral batch strategy                     ... SHARK/LIBINT Hybrid
RI-J (if used) integral strategy            ... SPLIT-RIJ (Revised 2003 algorithm where possible)
Printlevel                                  ...      1
Contraction scheme used                     ... SEGMENTED contraction
Coulomb Range Separation                    ... NOT USED
Exchange Range Separation                   ... NOT USED
Finite Nucleus Model                        ... NOT USED
Auxiliary Coulomb fitting basis             ... AVAILABLE
   # of basis functions in Aux-J            ...    191
   # of shells in Aux-J                     ...     65
   Maximum angular momentum in Aux-J        ...      4
Auxiliary J/K fitting basis                 ... NOT available
Auxiliary Correlation fitting basis         ... NOT available
Auxiliary 'external' fitting basis          ... NOT available
Integral threshold                          ...     2.500000e-11
Primitive cut-off                           ...     2.500000e-12
Primitive pair pre-selection threshold      ...     2.500000e-12

Calculating pre-screening integrals         ... done (  0.1 sec) Dimension = 52
Organizing shell pair data                  ... done (  0.0 sec)
Shell pair information
Total number of shell pairs                 ...      1378
Shell pairs after pre-screening             ...      1249
Total number of primitive shell pairs       ...      5593
Primitive shell pairs kept                  ...      3892
          la=0 lb=0:    289 shell pairs
          la=1 lb=0:    362 shell pairs
          la=1 lb=1:    126 shell pairs
          la=2 lb=0:    181 shell pairs
          la=2 lb=1:    117 shell pairs
          la=2 lb=2:     34 shell pairs
          la=3 lb=0:     68 shell pairs
          la=3 lb=1:     44 shell pairs
          la=3 lb=2:     22 shell pairs
          la=3 lb=3:      6 shell pairs

Calculating one electron integrals          ... done (  0.0 sec)
Calculating RI/J V-Matrix + Cholesky decomp.... done (  0.0 sec)
Calculating Nuclear repulsion               ... done (  0.0 sec) ENN=    182.754407097489 Eh

SHARK setup successfully completed in   0.2 seconds

Maximum memory used throughout the entire GTOINT-calculation: 18.6 MB


           ************************************************************
           *        Program running with 4 parallel MPI-processes     *
           *              working on a common directory               *
           ************************************************************

Diagonalization of the overlap matrix:
Smallest eigenvalue                        ... 1.603e-03
Time for diagonalization                   ...    0.003 sec
Threshold for overlap eigenvalues          ... 1.000e-08
Number of eigenvalues below threshold      ... 0
Time for construction of square roots      ...    0.001 sec
Total time needed                          ...    0.006 sec

-------------------
DFT GRID GENERATION
-------------------

General Integration Accuracy     IntAcc      ... 4.388
Radial Grid Type                 RadialGrid  ... OptM3 with GC (2021)
Angular Grid (max. ang.)         AngularGrid ... 4 (Lebedev-302)
Angular grid pruning method      GridPruning ... 4 (adaptive)
Weight generation scheme         WeightScheme... Becke
Basis function cutoff            BFCut       ... 1.0000e-11
Integration weight cutoff        WCut        ... 1.0000e-14
Angular grids for H and He will be reduced by one unit
Partially contracted basis set               ... off
Rotationally invariant grid construction     ... off

Total number of grid points                  ...    34597
Total number of batches                      ...      544
Average number of points per batch           ...       63
Average number of grid points per atom       ...     5766
Time for grid setup =    0.356 sec

--------------
SCF ITERATIONS
--------------
ITER       Energy         Delta-E        Max-DP      RMS-DP      [F,P]     Damp
               ***  Starting incremental Fock matrix formation  ***
  0  -3073.7258788826   0.000000000000 0.00225776  0.00009467  0.0285270 0.8500
  1  -3073.7264152642  -0.000536381540 0.00223821  0.00010140  0.0242531 0.8500
                               ***Turning on DIIS***
  2  -3073.7268922364  -0.000476972175 0.01326370  0.00063430  0.0206181 0.0000
  3  -3073.7293021954  -0.002409959090 0.00432164  0.00014813  0.0071242 0.0000
  4  -3073.7293966185  -0.000094423098 0.00204320  0.00005579  0.0039621 0.0000
                      *** Initiating the SOSCF procedure ***
                           *** Shutting down DIIS ***
                      *** Re-Reading the Fockian *** 
                      *** Removing any level shift *** 
ITER      Energy       Delta-E        Grad      Rot      Max-DP    RMS-DP
  5  -3073.72943473  -0.0000381122  0.000228  0.000228  0.000751  0.000019
               *** Restarting incremental Fock matrix formation ***
  6  -3073.72943650  -0.0000017684  0.000118  0.000926  0.001366  0.000028
  7  -3073.72943661  -0.0000001084  0.000178  0.000252  0.000197  0.000006
  8  -3073.72943680  -0.0000001901  0.000061  0.000296  0.000352  0.000008
  9  -3073.72943683  -0.0000000329  0.000031  0.000078  0.000088  0.000002
 10  -3073.72943684  -0.0000000106  0.000012  0.000024  0.000045  0.000001
 11  -3073.72943684   0.0000000022  0.000006  0.000006  0.000024  0.000000
 12  -3073.72943684   0.0000000005  0.000003  0.000013  0.000021  0.000000
                  ***Gradient check signals convergence***
              ***Rediagonalizing the Fockian in SOSCF/NRSCF***

               *****************************************************
               *                     SUCCESS                       *
               *           SCF CONVERGED AFTER  13 CYCLES          *
               *****************************************************

Total Energy       :        -3073.72943684 Eh          -83640.43017 eV
  Last Energy change         ...   -7.4670e-10  Tolerance :   1.0000e-08
  Last MAX-Density change    ...    8.3305e-06  Tolerance :   1.0000e-07
             **** THE GBW FILE WAS UPDATED (SN2_scan_ts.gbw) ****
             **** DENSITY SN2_scan_ts.scfp WAS UPDATED ****
             **** ENERGY FILE WAS UPDATED (SN2_scan_ts.en.tmp) ****
             **** THE GBW FILE WAS UPDATED (SN2_scan_ts.gbw) ****
             **** DENSITY SN2_scan_ts.scfp WAS UPDATED ****
Total SCF time: 0 days 0 hours 0 min 3 sec 

Maximum memory used throughout the entire SCF-calculation: 14.8 MB


-------------------------------------------------------------------------------
                          DFT DISPERSION CORRECTION                            
                                                                               
                              DFTD3 V3.1  Rev 1                                
                          USING Becke-Johnson damping                          
-------------------------------------------------------------------------------
-------------------------   ----------------
Dispersion correction           -0.003813617
-------------------------   ----------------


-------------------------   --------------------
FINAL SINGLE POINT ENERGY     -3073.733250456410
-------------------------   --------------------



           ************************************************************
           *        Program running with 4 parallel MPI-processes     *
           *              working on a common directory               *
           ************************************************************
------------------------------------------------------------------------------
                         ORCA SCF GRADIENT CALCULATION
------------------------------------------------------------------------------

Gradient of the Kohn-Sham DFT energy:
Kohn-Sham wavefunction type      ... RKS
Hartree-Fock exchange scaling    ...    0.000
Number of operators              ...    1
Number of atoms                  ...    6
Basis set dimensions             ...  134
Integral neglect threshold       ... 2.5e-11
Integral primitive cutoff        ... 2.5e-12
SHARK Integral package           ... ON

Nuc. rep. gradient       (SHARK) ... done (  0.0 sec)
HCore & Overlap gradient (SHARK) ... done (  0.1 sec)
RI-J gradient            (SHARK) ... done (  0.8 sec)
Exchange-correlation gradient    ... done
Dispersion correction            ... done

------------------
CARTESIAN GRADIENT
------------------

   1   C   :    0.019719381   -0.000758743   -0.002677614
   2   Br  :   -0.050548900    0.001986325    0.006847153
   3   H   :    0.010462480    0.003657049    0.001343781
   4   H   :    0.010065948   -0.004788987    0.000808833
   5   H   :    0.009305594   -0.000055937   -0.006181540
   6   Cl  :    0.000995497   -0.000039706   -0.000140614

Difference to translation invariance:
           :   -0.0000000005    0.0000000003   -0.0000000000

Difference to rotation invariance:
           :   -0.0000289031   -0.0000968740   -0.0000323009

Norm of the cartesian gradient     ...    0.0581205281
RMS gradient                       ...    0.0136991398
MAX gradient                       ...    0.0505489004

-------
TIMINGS
-------

Total SCF gradient time            ...        1.760 sec

One electron gradient       ....       0.058 sec  (  3.3%)
RI-J Coulomb gradient       ....       0.759 sec  ( 43.1%)
XC gradient                 ....       0.710 sec  ( 40.3%)

Maximum memory used throughout the entire SCFGRAD-calculation: 27.5 MB
------------------------------------------------------------------------------
                         ORCA GEOMETRY RELAXATION STEP
------------------------------------------------------------------------------

Reading the OPT-File                    .... done
Getting information on internals        .... done
Copying old internal coords+grads       .... done
Making the new internal coordinates     .... (new redundants).... done
Validating the new internal coordinates .... (new redundants).... done
Calculating the B-matrix                .... done
Calculating the G,G- and P matrices     .... done
Transforming gradient to internals      .... done
Projecting the internal gradient        .... done
Number of atoms                         ....   6
Number of internal coordinates          ....  17
Current Energy                          .... -3073.733250456 Eh
Current gradient norm                   ....     0.058120528 Eh/bohr
Maximum allowed component of the step   ....  0.300
Current trust radius                    ....  0.300
Updating the Hessian (BFGS)             .... done
Forming the augmented Hessian           .... done
Diagonalizing the augmented Hessian     .... done
Last element of RFO vector              ....  0.977304557
Lowest eigenvalues of augmented Hessian:
 -0.010038215  0.034354028  0.034354230  0.102088066  0.287061205
Length of the computed step             ....  0.216758528
The final length of the internal step   ....  0.216758528
Converting the step to cartesian space:
 Initial RMS(Int)=    0.0525716651
Transforming coordinates:
 Iter   0:  RMS(Cart)=    0.0453920595 RMS(Int)=    0.0527056565
 Iter   1:  RMS(Cart)=    0.0004902076 RMS(Int)=    0.0006071025
 Iter   2:  RMS(Cart)=    0.0000121667 RMS(Int)=    0.0000125068
 Iter   3:  RMS(Cart)=    0.0000002667 RMS(Int)=    0.0000004046
 Iter   4:  RMS(Cart)=    0.0000000119 RMS(Int)=    0.0000000131
Imposing constraints:
 Iter   0:  RMS(Cart)=    0.0001495290 RMS(Int)=    0.0006923373
 Iter   1:  RMS(Cart)=    0.0000746709 RMS(Int)=    0.0003457353
 Iter   2:  RMS(Cart)=    0.0000372887 RMS(Int)=    0.0001726513
 Iter   3:  RMS(Cart)=    0.0000186210 RMS(Int)=    0.0000862176
 Iter   4:  RMS(Cart)=    0.0000092989 RMS(Int)=    0.0000430548
 Iter   5:  RMS(Cart)=    0.0000046436 RMS(Int)=    0.0000215005
 Iter   6:  RMS(Cart)=    0.0000023189 RMS(Int)=    0.0000107368
 Iter   7:  RMS(Cart)=    0.0000011580 RMS(Int)=    0.0000053617
 Iter   8:  RMS(Cart)=    0.0000005783 RMS(Int)=    0.0000026775
 Iter   9:  RMS(Cart)=    0.0000002888 RMS(Int)=    0.0000013371
 Iter  10:  RMS(Cart)=    0.0000001442 RMS(Int)=    0.0000006677
 Iter  11:  RMS(Cart)=    0.0000000720 RMS(Int)=    0.0000003334
 Iter  12:  RMS(Cart)=    0.0000000360 RMS(Int)=    0.0000001665
 Iter  13:  RMS(Cart)=    0.0000000180 RMS(Int)=    0.0000000831
CONVERGED
done
Storing new coordinates                 .... done
The predicted energy change is          ....    -0.005254926
Previously predicted energy change      ....    -0.019856946
Actually observed energy change         ....    -0.023591260
Ratio of predicted to observed change   ....     1.188060891
New trust radius                        ....     0.450000000

                                .--------------------.
          ----------------------|Geometry convergence|-------------------------
          Item                value                   Tolerance       Converged
          ---------------------------------------------------------------------
          Energy change      -0.0235912605            0.0000050000      NO
          RMS gradient        0.0129172150            0.0001000000      NO
          MAX gradient        0.0510491899            0.0003000000      NO
          RMS step            0.0525716651            0.0020000000      NO
          MAX step            0.1503749652            0.0040000000      NO
          ........................................................
          Max(Bonds)      0.0796      Max(Angles)    1.98
          Max(Dihed)        0.00      Max(Improp)    0.00
          ---------------------------------------------------------------------

The optimization has not yet converged - more geometry cycles are needed


    ---------------------------------------------------------------------------
                         Redundant Internal Coordinates
                            (Angstroem and degrees)

        Definition                    Value    dE/dq     Step     New-Value
    ----------------------------------------------------------------------------
     1. B(Br  1,C   0)                1.8971 -0.051049  0.0796    1.9767   
     2. B(H   2,C   0)                1.0900  0.001887 -0.0040    1.0859   
     3. B(H   3,C   0)                1.0900  0.001893 -0.0041    1.0859   
     4. B(H   4,C   0)                1.0900  0.001889 -0.0040    1.0859   
     5. B(Cl  5,H   3)                2.9303  0.003242 -0.0376    2.8927   
     6. B(Cl  5,C   0)                3.0000 -0.010099 -0.0000    3.0000 C 
     7. B(Cl  5,H   2)                2.9303  0.003251 -0.0378    2.8925   
     8. B(Cl  5,H   4)                2.9303  0.003256 -0.0379    2.8924   
     9. A(H   2,C   0,H   3)          114.21  0.004749   -1.41    112.80   
    10. A(Br  1,C   0,H   4)          104.17 -0.006062    1.96    106.14   
    11. A(H   2,C   0,H   4)          114.21  0.004753   -1.41    112.80   
    12. A(H   3,C   0,H   4)          114.21  0.004751   -1.41    112.80   
    13. A(H   2,C   0,Cl  5)           75.83  0.006085   -1.97     73.85   
    14. A(H   3,C   0,Cl  5)           75.82  0.006080   -1.96     73.86   
    15. A(H   4,C   0,Cl  5)           75.83  0.006087   -1.98     73.85   
    16. A(Br  1,C   0,H   2)          104.18 -0.006070    1.97    106.14   
    17. A(Br  1,C   0,H   3)          104.17 -0.006121    1.98    106.15   
    ----------------------------------------------------------------------------

         *************************************************************
         *                GEOMETRY OPTIMIZATION CYCLE   3            *
         *************************************************************
---------------------------------
CARTESIAN COORDINATES (ANGSTROEM)
---------------------------------
  C     -4.104985    1.258471   -0.026442
  Br    -2.147659    1.181308   -0.291185
  H     -4.291917    2.134339    0.587567
  H     -4.378726    0.333358    0.471856
  H     -4.540167    1.343140   -1.017669
  Cl    -7.075696    1.376214    0.374823

----------------------------
CARTESIAN COORDINATES (A.U.)
----------------------------
  NO LB      ZA    FRAG     MASS         X           Y           Z
   0 C     6.0000    0    12.011   -7.757298    2.378166   -0.049968
   1 Br   35.0000    0    79.900   -4.058487    2.232349   -0.550260
   2 H     1.0000    0     1.008   -8.110548    4.033316    1.110340
   3 H     1.0000    0     1.008   -8.274593    0.629955    0.891679
   4 H     1.0000    0     1.008   -8.579673    2.538166   -1.923116
   5 Cl   17.0000    0    35.453  -13.371128    2.600668    0.708313

--------------------------------
INTERNAL COORDINATES (ANGSTROEM)
--------------------------------
 C      0   0   0     0.000000000000     0.00000000     0.00000000
 Br     1   0   0     1.976656148155     0.00000000     0.00000000
 H      1   2   0     1.085860852548   106.12236881     0.00000000
 H      1   2   3     1.085849631149   106.13115183   239.99639697
 H      1   2   3     1.085855834492   106.11911578   119.99546500
 Cl     5   1   2     2.892928372407    84.99494196   180.01177864

---------------------------
INTERNAL COORDINATES (A.U.)
---------------------------
 C      0   0   0     0.000000000000     0.00000000     0.00000000
 Br     1   0   0     3.735338780944     0.00000000     0.00000000
 H      1   2   0     2.051979630863   106.12236881     0.00000000
 H      1   2   3     2.051958425492   106.13115183   239.99639697
 H      1   2   3     2.051970148111   106.11911578   119.99546500
 Cl     5   1   2     5.466842348901    84.99494196   180.01177864



           ************************************************************
[...]
FINAL SINGLE POINT ENERGY     -3073.738116597047
-------------------------   --------------------

                                *** OPTIMIZATION RUN DONE ***

                            ***************************************
                            *     ORCA property calculations      *
                            ***************************************

                                    ---------------------
                                    Active property flags
                                    ---------------------
   (+) Dipole Moment


------------------------------------------------------------------------------
                       ORCA ELECTRIC PROPERTIES CALCULATION
------------------------------------------------------------------------------

Dipole Moment Calculation                       ... on
Quadrupole Moment Calculation                   ... off
Polarizability Calculation                      ... off
GBWName                                         ... SN2_scan_ts.gbw
Electron density                                ... SN2_scan_ts.scfp
The origin for moment calculation is the CENTER OF MASS  = (-6.778401,  2.340096 -0.182826)

-------------
DIPOLE MOMENT
-------------
                                X             Y             Z
Electronic contribution:     14.53769      -0.57303      -1.96609
Nuclear contribution   :    -12.74649       0.50206       1.72421
                        -----------------------------------------
Total Dipole Moment    :      1.79120      -0.07096      -0.24187
                        -----------------------------------------
Magnitude (a.u.)       :      1.80885
Magnitude (Debye)      :      4.59772



--------------------
Rotational spectrum 
--------------------
 
Rotational constants in cm-1:     4.803752     0.028818     0.028818 
Rotational constants in MHz : 144012.868951   863.956753   863.956630 

 Dipole components along the rotational axes: 
x,y,z [a.u.] :    -1.808846     0.000260     0.000168 
x,y,z [Debye]:    -4.597722     0.000662     0.000428 

 


           ************************************************************
           *        Program running with 4 parallel MPI-processes     *
           *              working on a common directory               *
           ************************************************************

-------------------------------------------------------------------------------
                               ORCA SCF HESSIAN
-------------------------------------------------------------------------------

                   --------- SHARK INITIALIZATION DONE ---------

Hessian of the Kohn-Sham DFT energy:
Kohn-Sham wavefunction type                      ... RKS
Hartree-Fock exchange scaling                    ...    0.000
Number of operators                              ...    1
Number of atoms                                  ...    6
Basis set dimensions                             ...  134
Integral neglect threshold                       ... 2.5e-11
Integral primitive cutoff                        ... 2.5e-12

Setting up DFT Hessian calculations              ... 

HESS GRID
---------

General Integration Accuracy     IntAcc      ... 4.629
Radial Grid Type                 RadialGrid  ... OptM3 with GC (2021)
Angular Grid (max. ang.)         AngularGrid ... 5 (Lebedev-434)
Angular grid pruning method      GridPruning ... 4 (adaptive)
Weight generation scheme         WeightScheme... Becke
Basis function cutoff            BFCut       ... 1.0000e-11
Integration weight cutoff        WCut        ... 1.0000e-14
Angular grids for H and He will be reduced by one unit
Partially contracted basis set               ... off
Rotationally invariant grid construction     ... off

Total number of grid points                  ...    53661
Total number of batches                      ...      841
Average number of points per batch           ...       63
Average number of grid points per atom       ...     8944

Building densities                               ... done   (      0.0 sec)
Calculating rho(r) on the grid                   ... done   (      0.2 sec)
Building xc-kernel on the grid                   ... done   (      0.0 sec)
                                                     done   (      1.3 sec)

Nuclear repulsion Hessian  (SHARK)               ... done   (      0.0 sec)

----------------------------------------------
Forming right-hand sides of CP-SCF equations     ...
----------------------------------------------
One electron integral derivatives  (SHARK)       ... done   (      0.0 sec)
Transforming the overlap derivative matrices     ... done   (      0.0 sec)
Making the Q(x) pseudodensities                  ... done   (      0.0 sec)
Adding the E*S(x)*S(y) terms to the Hessian      ... done   (      0.0 sec)
Calculating energy weighted overlap derivatives  ... done   (      0.0 sec)
Two electron integral derivatives (SHARK-RI)     ... done   (      0.9 sec)
Exchange-correlation integral derivatives        ... done   (      6.3 sec)
tr(F(y)Q(x)) contribution to the Hessian         ... done   (      0.0 sec)
Response fock operator R(S(x)) (SHARK-RI)        ... done   (      0.3 sec)
XC Response fock operator R(S(x))                ... done   (      1.4 sec)
tr(F(y)S(x)) contribution to the Hessian         ... done   (      0.0 sec)
Transforming and finalizing RHSs                 ... done   (      0.0 sec)

----------------------------------------------
Solving the CP-SCF equations (RI)                ...
----------------------------------------------
     CP-SCF ITERATION   0:   1.4519e-01 (   0.4 sec   0/ 18 done)
     CP-SCF ITERATION   1:   1.3738e-01 (   0.5 sec   0/ 18 done)
     CP-SCF ITERATION   2:   2.2214e-02 (   0.4 sec   0/ 18 done)
     CP-SCF ITERATION   3:   8.1552e-03 (   0.6 sec   0/ 18 done)
     CP-SCF ITERATION   4:   3.4575e-03 (   0.4 sec   0/ 18 done)
     CP-SCF ITERATION   5:   1.1917e-03 (   0.3 sec   3/ 18 done)
     CP-SCF ITERATION   6:   2.7373e-04 (   0.3 sec  10/ 18 done)
     CP-SCF ITERATION   7:   1.2966e-04 (   0.2 sec  17/ 18 done)
     CP-SCF ITERATION   8:   2.6753e-05 (   0.1 sec  18/ 18 done)
                    *** THE CP-SCF HAS CONVERGED ***

                                                 ... done   (      3.4 sec)
Forming perturbed density Hessian contributions  ... done   (      0.0 sec)
2nd integral derivative contribs (SHARK-RI)      ... done   (      1.5 sec)
Exchange-correlation Hessian                     ... done   (      4.2 sec)
Dispersion correction in the Hessian             ... done   (      0.5 sec)
Dipole derivatives                               ... (center of mass: -6.778401,  2.340096 -0.182826)done   (      0.1 sec)

Total SCF Hessian time: 0 days 0 hours 0 min 20 sec 

Writing the Hessian file to the disk             ... done


Maximum memory used throughout the entire SCFHESS-calculation: 72.8 MB

-----------------------
VIBRATIONAL FREQUENCIES
-----------------------

Scaling factor for frequencies =  1.000000000  (already applied!)

   0:         0.00 cm**-1
   1:         0.00 cm**-1
   2:         0.00 cm**-1
   3:         0.00 cm**-1
   4:         0.00 cm**-1
   5:         0.00 cm**-1
   6:      -282.45 cm**-1 ***imaginary mode***
   7:       170.34 cm**-1
   8:       173.70 cm**-1
   9:       173.72 cm**-1
  10:       843.00 cm**-1
  11:       843.18 cm**-1
  12:       929.16 cm**-1
  13:      1349.46 cm**-1
  14:      1349.47 cm**-1
  15:      3124.32 cm**-1
  16:      3314.17 cm**-1
  17:      3314.25 cm**-1


------------
NORMAL MODES
------------

These modes are the Cartesian displacements weighted by the diagonal matrix
M(i,i)=1/sqrt(m[i]) where m[i] is the mass of the displaced atom
Thus, these vectors are normalized but *not* orthogonal

                  0          1          2          3          4          5    
      0       0.000000   0.000000   0.000000   0.000000   0.000000   0.000000
      1       0.000000   0.000000   0.000000   0.000000   0.000000   0.000000
      2       0.000000   0.000000   0.000000   0.000000   0.000000   0.000000
      3       0.000000   0.000000   0.000000   0.000000   0.000000   0.000000
      4       0.000000   0.000000   0.000000   0.000000   0.000000   0.000000
      5       0.000000   0.000000   0.000000   0.000000   0.000000   0.000000
      6       0.000000   0.000000   0.000000   0.000000   0.000000   0.000000
      7       0.000000   0.000000   0.000000   0.000000   0.000000   0.000000
      8       0.000000   0.000000   0.000000   0.000000   0.000000   0.000000
      9       0.000000   0.000000   0.000000   0.000000   0.000000   0.000000
     10       0.000000   0.000000   0.000000   0.000000   0.000000   0.000000
     11       0.000000   0.000000   0.000000   0.000000   0.000000   0.000000
     12       0.000000   0.000000   0.000000   0.000000   0.000000   0.000000
     13       0.000000   0.000000   0.000000   0.000000   0.000000   0.000000
     14       0.000000   0.000000   0.000000   0.000000   0.000000   0.000000
     15       0.000000   0.000000   0.000000   0.000000   0.000000   0.000000
     16       0.000000   0.000000   0.000000   0.000000   0.000000   0.000000
     17       0.000000   0.000000   0.000000   0.000000   0.000000   0.000000
                  6          7          8          9         10         11    
      0       0.965182   0.191840  -0.012459   0.066609   0.000262  -0.002663
      1      -0.038245  -0.004706   0.435549   0.219789   0.018582  -0.002914
      2      -0.130310  -0.020936  -0.220271   0.430847  -0.002957  -0.018415
      3      -0.076343  -0.403233   0.001201  -0.005795  -0.000075   0.000580
      4       0.003012   0.015656  -0.041062  -0.020739  -0.004131   0.000646
      5       0.010319   0.054030   0.020762  -0.040682   0.000660   0.004095
      6       0.057684   0.177750   0.005986   0.101732  -0.590321   0.553942
      7      -0.039318  -0.009968   0.443953   0.223129  -0.011079  -0.023752
      8      -0.032625  -0.022865  -0.226634   0.436710   0.093318  -0.036491
      9       0.062145   0.178066  -0.050994   0.067386   0.770100   0.243750
     10       0.037269   0.002191   0.446864   0.223757  -0.061022   0.001640
     11      -0.027831  -0.022100  -0.220408   0.438598  -0.103821   0.009512
     12       0.067615   0.178813   0.006627   0.035311  -0.180566  -0.782099
     13      -0.005654  -0.004608   0.444159   0.226737  -0.036741   0.038993
     14       0.035730  -0.011976  -0.227946   0.445151   0.027759   0.134669
     15      -0.160267   0.828569   0.002605  -0.015318   0.000103  -0.000849
     16       0.006388  -0.033338  -0.092974  -0.046875   0.006109  -0.000949
     17       0.021594  -0.113054   0.047026  -0.091824  -0.000977  -0.006051
                 12         13         14         15         16         17    
      0      -0.023375  -0.009559   0.008678   0.007072  -0.000044  -0.014186
      1       0.000908   0.040661   0.083098  -0.000239   0.097498  -0.028556
      2       0.003169  -0.082616   0.039885  -0.001035  -0.028830  -0.096543
      3      -0.009606   0.000002  -0.000001  -0.000104   0.000000   0.000018
      4       0.000381  -0.000008  -0.000017   0.000004  -0.000121   0.000035
      5       0.001298   0.000016  -0.000007   0.000014   0.000036   0.000120
      6       0.574142   0.062264   0.075635   0.033337  -0.027167   0.030507
      7       0.002218  -0.455505   0.001066   0.478810  -0.423401   0.523661
      8      -0.060748   0.653903   0.127592   0.320970  -0.298780   0.339500
      9       0.570765   0.021100  -0.124145  -0.014738  -0.025946  -0.006590
     10      -0.049403   0.275631  -0.233188  -0.517284  -0.714583  -0.128414
     11      -0.063931   0.419217  -0.582244   0.257239   0.359184   0.046865
     12       0.567029   0.029261  -0.053719  -0.103798   0.053651   0.142478
     13      -0.020462  -0.299144  -0.746667   0.041362  -0.005622  -0.060294
     14      -0.106775  -0.099873  -0.015276  -0.565774   0.277779   0.746046
     15      -0.019105   0.000032  -0.000030   0.000261  -0.000001   0.000035
     16       0.000756  -0.000138  -0.000285  -0.000010  -0.000243   0.000071
     17       0.002581   0.000282  -0.000135  -0.000035   0.000072   0.000241


-----------
IR SPECTRUM
-----------

 Mode   freq       eps      Int      T**2         TX        TY        TZ
       cm**-1   L/(mol*cm) km/mol    a.u.
----------------------------------------------------------------------------
  7:    170.34   0.000408    2.06  0.000748  (-0.027055  0.001164  0.003821)
  8:    173.70   0.001275    6.44  0.002291  (-0.001136  0.042695 -0.021612)
  9:    173.72   0.001276    6.45  0.002292  ( 0.006682  0.021536  0.042226)
 10:    843.00   0.000043    0.22  0.000016  (-0.000126 -0.003950  0.000653)
 11:    843.18   0.000043    0.22  0.000016  ( 0.000524  0.000604  0.003922)
 12:    929.16   0.011998   60.63  0.004030  (-0.062863  0.002472  0.008471)
 13:   1349.46   0.000779    3.93  0.000180  ( 0.001422 -0.005886  0.011974)
 14:   1349.47   0.000775    3.92  0.000179  (-0.001272 -0.012010 -0.005777)
 15:   3124.32   0.000022    0.11  0.000002  (-0.001464  0.000070  0.000164)
 16:   3314.17   0.000341    1.72  0.000032  ( 0.000011 -0.005434  0.001602)
 17:   3314.25   0.000342    1.73  0.000032  ( 0.000789  0.001558  0.005396)

* The epsilon (eps) is given for a Dirac delta lineshape.
** The dipole moment derivative (T) already includes vibrational overlap.

The first frequency considered to be a vibration is 7
The total number of vibrations considered is 11


--------------------------
THERMOCHEMISTRY AT 298.15K
--------------------------

Temperature         ... 298.15 K
Pressure            ... 1.00 atm
Total Mass          ... 130.39 AMU

Throughout the following assumptions are being made:
  (1) The electronic state is orbitally nondegenerate
  (2) There are no thermally accessible electronically excited states
  (3) Hindered rotations indicated by low frequency modes are not
      treated as such but are treated as vibrations and this may
      cause some error
  (4) All equations used are the standard statistical mechanics
      equations for an ideal gas
  (5) All vibrations are strictly harmonic

freq.     170.34  E(vib)   ...       0.38 
freq.     173.70  E(vib)   ...       0.38 
freq.     173.72  E(vib)   ...       0.38 
freq.     843.00  E(vib)   ...       0.04 
freq.     843.18  E(vib)   ...       0.04 
freq.     929.16  E(vib)   ...       0.03 
freq.    1349.46  E(vib)   ...       0.01 
freq.    1349.47  E(vib)   ...       0.01 
freq.    3124.32  E(vib)   ...       0.00 
freq.    3314.17  E(vib)   ...       0.00 
freq.    3314.25  E(vib)   ...       0.00 

------------
INNER ENERGY
------------

The inner energy is: U= E(el) + E(ZPE) + E(vib) + E(rot) + E(trans)
    E(el)   - is the total energy from the electronic structure calculation
              = E(kin-el) + E(nuc-el) + E(el-el) + E(nuc-nuc)
    E(ZPE)  - the the zero temperature vibrational energy from the frequency calculation
    E(vib)  - the the finite temperature correction to E(ZPE) due to population
              of excited vibrational states
    E(rot)  - is the rotational thermal energy
    E(trans)- is the translational thermal energy

Summary of contributions to the inner energy U:
Electronic energy                ...  -3073.73811660 Eh
Zero point energy                ...      0.03550475 Eh      22.28 kcal/mol
Thermal vibrational correction   ...      0.00201531 Eh       1.26 kcal/mol
Thermal rotational correction    ...      0.00141627 Eh       0.89 kcal/mol
Thermal translational correction ...      0.00141627 Eh       0.89 kcal/mol
-----------------------------------------------------------------------
Total thermal energy                  -3073.69776400 Eh


Summary of corrections to the electronic energy:
(perhaps to be used in another calculation)
Total thermal correction                  0.00484785 Eh       3.04 kcal/mol
Non-thermal (ZPE) correction              0.03550475 Eh      22.28 kcal/mol
-----------------------------------------------------------------------
Total correction                          0.04035260 Eh      25.32 kcal/mol


--------
ENTHALPY
--------

The enthalpy is H = U + kB*T
                kB is Boltzmann's constant
Total free energy                 ...  -3073.69776400 Eh 
Thermal Enthalpy correction       ...      0.00094421 Eh       0.59 kcal/mol
-----------------------------------------------------------------------
Total Enthalpy                    ...  -3073.69681979 Eh


Note: Only C1 symmetry has been detected, increase convergence thresholds 
      if your molecule has a higher symmetry. Symmetry factor of 1.0 is   
      used for the rotational entropy correction. 
 

Note: Rotational entropy computed according to Herzberg 
Infrared and Raman Spectra, Chapter V,1, Van Nostrand Reinhold, 1945 
Point Group:  C1, Symmetry Number:   1  
Rotational constants in cm-1:     4.803752     0.028818     0.028818 

Vibrational entropy computed according to the QRRHO of S. Grimme
Chem.Eur.J. 2012 18 9955


-------
ENTROPY
-------

The entropy contributions are T*S = T*(S(el)+S(vib)+S(rot)+S(trans))
     S(el)   - electronic entropy
     S(vib)  - vibrational entropy
     S(rot)  - rotational entropy
     S(trans)- translational entropy
The entropies will be listed as multiplied by the temperature to get
units of energy

Electronic entropy                ...      0.00000000 Eh      0.00 kcal/mol
Vibrational entropy               ...      0.00366421 Eh      2.30 kcal/mol
Rotational entropy                ...      0.01211868 Eh      7.60 kcal/mol
Translational entropy             ...      0.01924704 Eh     12.08 kcal/mol
-----------------------------------------------------------------------
Final entropy term                ...      0.03502993 Eh     21.98 kcal/mol

In case the symmetry of your molecule has not been determined correctly
or in case you have a reason to use a different symmetry number we print 
out the resulting rotational entropy values for sn=1,12 :
 --------------------------------------------------------
|  sn= 1 | S(rot)=       0.01211868 Eh      7.60 kcal/mol|
|  sn= 2 | S(rot)=       0.01146422 Eh      7.19 kcal/mol|
|  sn= 3 | S(rot)=       0.01108139 Eh      6.95 kcal/mol|
|  sn= 4 | S(rot)=       0.01080976 Eh      6.78 kcal/mol|
|  sn= 5 | S(rot)=       0.01059907 Eh      6.65 kcal/mol|
|  sn= 6 | S(rot)=       0.01042693 Eh      6.54 kcal/mol|
|  sn= 7 | S(rot)=       0.01028138 Eh      6.45 kcal/mol|
|  sn= 8 | S(rot)=       0.01015531 Eh      6.37 kcal/mol|
|  sn= 9 | S(rot)=       0.01004410 Eh      6.30 kcal/mol|
|  sn=10 | S(rot)=       0.00994462 Eh      6.24 kcal/mol|
|  sn=11 | S(rot)=       0.00985463 Eh      6.18 kcal/mol|
|  sn=12 | S(rot)=       0.00977247 Eh      6.13 kcal/mol|
 --------------------------------------------------------


-------------------
GIBBS FREE ENERGY
-------------------

The Gibbs free energy is G = H - T*S

Total enthalpy                    ...  -3073.69681979 Eh 
Total entropy correction          ...     -0.03502993 Eh    -21.98 kcal/mol
-----------------------------------------------------------------------
Final Gibbs free energy         ...  -3073.73184972 Eh

For completeness - the Gibbs free energy minus the electronic energy
G-E(el)                           ...      0.00626688 Eh      3.93 kcal/mol


Timings for individual modules:

Sum of individual times         ...      514.360 sec (=   8.573 min)
GTO integral calculation        ...       52.367 sec (=   0.873 min)  10.2 %
SCF iterations                  ...      289.621 sec (=   4.827 min)  56.3 %
SCF Gradient evaluation         ...      149.737 sec (=   2.496 min)  29.1 %
Geometry relaxation             ...        1.408 sec (=   0.023 min)   0.3 %
Analytical frequency calculation...       21.228 sec (=   0.354 min)   4.1 %
                             ****ORCA TERMINATED NORMALLY****
TOTAL RUN TIME: 0 days 0 hours 9 minutes 8 seconds 634 msec
