|===============================================================================
|
|  DFTB+ release 22.2
|
|  Copyright (C) 2006 - 2022  DFTB+ developers group
|
|===============================================================================
|
|  When publishing results obtained with DFTB+, please cite the following
|  reference:
|
|  * DFTB+, a software package for efficient approximate density functional
|    theory based atomistic simulations, J. Chem. Phys. 152, 124101 (2020).
|    [doi: 10.1063/1.5143190]
|
|  You should also cite additional publications crediting the parametrization
|  data you use. Please consult the documentation of the SK-files for the
|  references.
|
|===============================================================================

Reading input file 'dftb_in.hsd'
Parser version: 12

--------------------------------------------------------------------------------
***  Converting input from parser version 11 to parser version 12 ...
***  Done.

Reading SK-files:
/home/luca/slakos/3ob/3ob-3-1/O-O.skf
/home/luca/slakos/3ob/3ob-3-1/O-H.skf
/home/luca/slakos/3ob/3ob-3-1/H-H.skf
Done.


Processed input in HSD format written to 'dftb_pin.hsd'

Starting initialization...
--------------------------------------------------------------------------------
MPI processes:               1
OpenMP threads:              1
BLACS orbital grid size:     1 x 1
BLACS atom grid size:        1 x 1
Chosen random seed:          18510795
Mode:                        MD with scaling of velocities according to
                             Nose-Hoover-Chain thermostat
Self consistent charges:     Yes
SCC-tolerance:                 0.100000E-04
Max. scc iterations:                    500
Shell resolved Hubbard:      No
Spin polarisation:           No
Nr. of up electrons:             4.000000
Nr. of down electrons:           4.000000
Periodic boundaries:         No
Electronic solver:           Relatively robust
Mixer:                       Broyden mixer
Mixing parameter:                  0.200000
Maximal SCC-cycles:                     500
Nr. of chrg. vec. in memory:            500
Electronic temperature:              0.100000E-07 H      0.272114E-06 eV
Time step:                     0.413414E+02
Initial charges:             Set automatically (system chrg:   0.000E+00)
Included shells:             O:  s, p
                             H:  s
Full 3rd order correction    Yes
Damped SCC                   Yes
Damped species(s):           H                                                 
Extra options:
                             Mulliken analysis
Force type                   original

--------------------------------------------------------------------------------

***  Geometry step: 0

 iSCC Total electronic   Diff electronic      SCC error    
    1    0.00000000E+00    0.00000000E+00    0.78928100E+00
    2   -0.41238557E+01   -0.41238557E+01    0.60515873E+00
    3   -0.41245370E+01   -0.68130899E-03    0.31495262E-01
    4   -0.41251294E+01   -0.59234924E-03    0.22225441E-02
    5   -0.41251299E+01   -0.49652033E-06    0.26097689E-04
    6   -0.41251299E+01   -0.22643611E-08    0.27577144E-06

Total Energy:                       -4.0706605560 H         -110.7683 eV
Extrapolated to 0K:                 -4.0706605560 H         -110.7683 eV
Total Mermin free energy:           -4.0706605560 H         -110.7683 eV
Force related energy:               -4.0706605560 H         -110.7683 eV

>> Charges saved for restart in charges.bin
MD Temperature:                      0.0009441860 H          298.1500 K
MD Kinetic Energy:                   0.0028325580 H            0.0771 eV
Total MD Energy:                    -4.0678279980 H         -110.6912 eV

--------------------------------------------------------------------------------

***  Geometry step: 1

 iSCC Total electronic   Diff electronic      SCC error    
    1   -0.41251299E+01    0.00000000E+00    0.17208956E-02
    2   -0.41208978E+01    0.42321105E-02    0.13145784E-02
    3   -0.41208978E+01   -0.20307432E-07    0.36331438E-04
    4   -0.41208978E+01   -0.27866008E-07    0.90392079E-06

Total Energy:                       -4.0702813815 H         -110.7580 eV
Extrapolated to 0K:                 -4.0702813815 H         -110.7580 eV
Total Mermin free energy:           -4.0702813815 H         -110.7580 eV
Force related energy:               -4.0702813815 H         -110.7580 eV

MD Temperature:                      0.0008330437 H          263.0541 K
MD Kinetic Energy:                   0.0024991310 H            0.0680 eV
Total MD Energy:                    -4.0677822505 H         -110.6900 eV

--------------------------------------------------------------------------------

***  Geometry step: 2

 iSCC Total electronic   Diff electronic      SCC error    
    1   -0.41208978E+01    0.00000000E+00    0.16711124E-02
    2   -0.41211501E+01   -0.25224441E-03    0.13216007E-02
    3   -0.41211501E+01   -0.46168722E-08    0.74027083E-04
    4   -0.41211501E+01   -0.64014625E-08    0.51446217E-06

Total Energy:                       -4.0703209585 H         -110.7591 eV
Extrapolated to 0K:                 -4.0703209585 H         -110.7591 eV
Total Mermin free energy:           -4.0703209585 H         -110.7591 eV
Force related energy:               -4.0703209585 H         -110.7591 eV

MD Temperature:                      0.0008501324 H          268.4502 K
MD Kinetic Energy:                   0.0025503971 H            0.0694 eV
Total MD Energy:                    -4.0677705614 H         -110.6897 eV

--------------------------------------------------------------------------------

***  Geometry step: 3

 iSCC Total electronic   Diff electronic      SCC error    
    1   -0.41211501E+01    0.00000000E+00    0.37199489E-02
    2   -0.41257216E+01   -0.45715128E-02    0.29403096E-02
    3   -0.41257216E+01   -0.44886539E-08    0.61677357E-04
    4   -0.41257216E+01   -0.66104278E-08    0.96026348E-05

Total Energy:                       -4.0709237106 H         -110.7755 eV
Extrapolated to 0K:                 -4.0709237106 H         -110.7755 eV
Total Mermin free energy:           -4.0709237106 H         -110.7755 eV
Force related energy:               -4.0709237106 H         -110.7755 eV

MD Temperature:                      0.0010373997 H          327.5845 K
MD Kinetic Energy:                   0.0031121991 H            0.0847 eV
Total MD Energy:                    -4.0678115116 H         -110.6908 eV

--------------------------------------------------------------------------------

***  Geometry step: 4

 iSCC Total electronic   Diff electronic      SCC error    
    1   -0.41257216E+01    0.00000000E+00    0.47918122E-02
    2   -0.41328320E+01   -0.71104023E-02    0.37977556E-02
    3   -0.41328320E+01   -0.18888031E-07    0.16408464E-03
    4   -0.41328321E+01   -0.26366957E-07    0.13955415E-04
    5   -0.41328321E+01   -0.38566217E-09    0.13066810E-08

Total Energy:                       -4.0714379455 H         -110.7895 eV
Extrapolated to 0K:                 -4.0714379455 H         -110.7895 eV
Total Mermin free energy:           -4.0714379455 H         -110.7895 eV
Force related energy:               -4.0714379455 H         -110.7895 eV

MD Temperature:                      0.0011947210 H          377.2626 K
MD Kinetic Energy:                   0.0035841629 H            0.0975 eV
Total MD Energy:                    -4.0678537826 H         -110.6919 eV

--------------------------------------------------------------------------------

***  Geometry step: 5

 iSCC Total electronic   Diff electronic      SCC error    
    1   -0.41328321E+01    0.00000000E+00    0.48420042E-02
    2   -0.41394334E+01   -0.66013226E-02    0.38501567E-02
    3   -0.41394334E+01   -0.19377371E-07    0.18316858E-03
    4   -0.41394334E+01   -0.26913323E-07    0.13924088E-04
    5   -0.41394334E+01   -0.46249315E-09    0.13142980E-08

Total Energy:                       -4.0712631125 H         -110.7847 eV
Extrapolated to 0K:                 -4.0712631125 H         -110.7847 eV
Total Mermin free energy:           -4.0712631125 H         -110.7847 eV
Force related energy:               -4.0712631125 H         -110.7847 eV

MD Temperature:                      0.0011462134 H          361.9451 K
MD Kinetic Energy:                   0.0034386403 H            0.0936 eV
Total MD Energy:                    -4.0678244722 H         -110.6911 eV

--------------------------------------------------------------------------------

***  Geometry step: 6

 iSCC Total electronic   Diff electronic      SCC error    
    1   -0.41394334E+01    0.00000000E+00    0.45015522E-02
    2   -0.41422243E+01   -0.27908773E-02    0.35852448E-02
    3   -0.41422243E+01   -0.55264326E-08    0.10085716E-03
    4   -0.41422243E+01   -0.77235098E-08    0.14051683E-04
    5   -0.41422243E+01   -0.16327206E-09    0.13505552E-08

Total Energy:                       -4.0708842630 H         -110.7744 eV
Extrapolated to 0K:                 -4.0708842630 H         -110.7744 eV
Total Mermin free energy:           -4.0708842630 H         -110.7744 eV
Force related energy:               -4.0708842630 H         -110.7744 eV

MD Temperature:                      0.0010371144 H          327.4944 K
MD Kinetic Energy:                   0.0031113431 H            0.0847 eV
Total MD Energy:                    -4.0677729199 H         -110.6897 eV

--------------------------------------------------------------------------------

***  Geometry step: 7

 iSCC Total electronic   Diff electronic      SCC error    
    1   -0.41422243E+01    0.00000000E+00    0.42104220E-02
    2   -0.41396417E+01    0.25825893E-02    0.33522750E-02
    3   -0.41396417E+01   -0.12229888E-08    0.40730843E-04
    4   -0.41396417E+01   -0.17748372E-08    0.15007015E-04
    5   -0.41396417E+01   -0.27870151E-10    0.12271268E-08

Total Energy:                       -4.0710799006 H         -110.7797 eV
Extrapolated to 0K:                 -4.0710799006 H         -110.7797 eV
Total Mermin free energy:           -4.0710799006 H         -110.7797 eV
Force related energy:               -4.0710799006 H         -110.7797 eV

MD Temperature:                      0.0010870547 H          343.2643 K
MD Kinetic Energy:                   0.0032611640 H            0.0887 eV
Total MD Energy:                    -4.0678187366 H         -110.6910 eV

--------------------------------------------------------------------------------

***  Geometry step: 8

 iSCC Total electronic   Diff electronic      SCC error    
    1   -0.41396417E+01    0.00000000E+00    0.38253940E-02
    2   -0.41332122E+01    0.64295222E-02    0.30453224E-02
    3   -0.41332122E+01   -0.14042674E-07    0.16628572E-03
    4   -0.41332122E+01   -0.18921064E-07    0.55931756E-05

Total Energy:                       -4.0713568131 H         -110.7873 eV
Extrapolated to 0K:                 -4.0713568131 H         -110.7873 eV
Total Mermin free energy:           -4.0713568131 H         -110.7873 eV
Force related energy:               -4.0713568131 H         -110.7873 eV

MD Temperature:                      0.0011572980 H          365.4454 K
MD Kinetic Energy:                   0.0034718941 H            0.0945 eV
Total MD Energy:                    -4.0678849190 H         -110.6928 eV

--------------------------------------------------------------------------------

***  Geometry step: 9

 iSCC Total electronic   Diff electronic      SCC error    
    1   -0.41332122E+01    0.00000000E+00    0.32627442E-02
    2   -0.41263942E+01    0.68180006E-02    0.26003575E-02
    3   -0.41263943E+01   -0.22030672E-07    0.20367917E-03
    4   -0.41263943E+01   -0.29342953E-07    0.28321224E-05

Total Energy:                       -4.0709637172 H         -110.7766 eV
Extrapolated to 0K:                 -4.0709637172 H         -110.7766 eV
Total Mermin free energy:           -4.0709637172 H         -110.7766 eV
Force related energy:               -4.0709637172 H         -110.7766 eV

MD Temperature:                      0.0010315530 H          325.7383 K
MD Kinetic Energy:                   0.0030946590 H            0.0842 eV
Total MD Energy:                    -4.0678690582 H         -110.6923 eV

--------------------------------------------------------------------------------

***  Geometry step: 10

 iSCC Total electronic   Diff electronic      SCC error    
    1   -0.41263943E+01    0.00000000E+00    0.27407407E-02
    2   -0.41223176E+01    0.40767352E-02    0.21859155E-02
    3   -0.41223176E+01   -0.10098335E-07    0.14709941E-03
    4   -0.41223176E+01   -0.13270799E-07    0.18128453E-05

Total Energy:                       -4.0703115178 H         -110.7588 eV
Extrapolated to 0K:                 -4.0703115178 H         -110.7588 eV
Total Mermin free energy:           -4.0703115178 H         -110.7588 eV
Force related energy:               -4.0703115178 H         -110.7588 eV

>> Charges saved for restart in charges.bin
MD Temperature:                      0.0008280632 H          261.4814 K
MD Kinetic Energy:                   0.0024841896 H            0.0676 eV
Total MD Energy:                    -4.0678273282 H         -110.6912 eV

--------------------------------------------------------------------------------

***  Geometry step: 11

 iSCC Total electronic   Diff electronic      SCC error    
    1   -0.41223176E+01    0.00000000E+00    0.22319187E-02
    2   -0.41225877E+01   -0.27009809E-03    0.17784350E-02
    3   -0.41225877E+01   -0.83248963E-10    0.27649010E-05

Total Energy:                       -4.0702040047 H         -110.7559 eV
Extrapolated to 0K:                 -4.0702040047 H         -110.7559 eV
Total Mermin free energy:           -4.0702040047 H         -110.7559 eV
Force related energy:               -4.0702040047 H         -110.7559 eV

MD Temperature:                      0.0007885188 H          248.9943 K
MD Kinetic Energy:                   0.0023655565 H            0.0644 eV
Total MD Energy:                    -4.0678384481 H         -110.6915 eV

--------------------------------------------------------------------------------

***  Geometry step: 12

 iSCC Total electronic   Diff electronic      SCC error    
    1   -0.41225877E+01    0.00000000E+00    0.15628161E-02
    2   -0.41271076E+01   -0.45199331E-02    0.12102416E-02
    3   -0.41271076E+01   -0.90910977E-08    0.10952047E-03
    4   -0.41271076E+01   -0.12158538E-07    0.16832139E-06

Total Energy:                       -4.0706443487 H         -110.7679 eV
Extrapolated to 0K:                 -4.0706443487 H         -110.7679 eV
Total Mermin free energy:           -4.0706443487 H         -110.7679 eV
Force related energy:               -4.0706443487 H         -110.7679 eV

MD Temperature:                      0.0009140563 H          288.6358 K
MD Kinetic Energy:                   0.0027421689 H            0.0746 eV
Total MD Energy:                    -4.0679021798 H         -110.6933 eV

--------------------------------------------------------------------------------

***  Geometry step: 13

 iSCC Total electronic   Diff electronic      SCC error    
    1   -0.41271076E+01    0.00000000E+00    0.13313928E-02
    2   -0.41340983E+01   -0.69906185E-02    0.10131007E-02
    3   -0.41340983E+01   -0.17200924E-07    0.11149690E-04
    4   -0.41340983E+01   -0.23474426E-07    0.18791057E-05

Total Energy:                       -4.0708784333 H         -110.7742 eV
Extrapolated to 0K:                 -4.0708784333 H         -110.7742 eV
Total Mermin free energy:           -4.0708784333 H         -110.7742 eV
Force related energy:               -4.0708784333 H         -110.7742 eV

MD Temperature:                      0.0009801718 H          309.5134 K
MD Kinetic Energy:                   0.0029405153 H            0.0800 eV
Total MD Energy:                    -4.0679379180 H         -110.6942 eV

--------------------------------------------------------------------------------

***  Geometry step: 14

 iSCC Total electronic   Diff electronic      SCC error    
    1   -0.41340983E+01    0.00000000E+00    0.18373828E-02
    2   -0.41403489E+01   -0.62505654E-02    0.14297346E-02
    3   -0.41403489E+01   -0.94802832E-08    0.12384795E-03
    4   -0.41403489E+01   -0.12885590E-07    0.11411281E-05

Total Energy:                       -4.0706072004 H         -110.7669 eV
Extrapolated to 0K:                 -4.0706072004 H         -110.7669 eV
Total Mermin free energy:           -4.0706072004 H         -110.7669 eV
Force related energy:               -4.0706072004 H         -110.7669 eV

MD Temperature:                      0.0009043659 H          285.5758 K
MD Kinetic Energy:                   0.0027130978 H            0.0738 eV
Total MD Energy:                    -4.0678941025 H         -110.6930 eV

--------------------------------------------------------------------------------

***  Geometry step: 15

 iSCC Total electronic   Diff electronic      SCC error    
    1   -0.41403489E+01    0.00000000E+00    0.30543397E-02
    2   -0.41425254E+01   -0.21765594E-02    0.24386338E-02
    3   -0.41425254E+01   -0.24112712E-09    0.20510174E-04
    4   -0.41425254E+01   -0.33965453E-09    0.84268990E-05

Total Energy:                       -4.0705981006 H         -110.7666 eV
Extrapolated to 0K:                 -4.0705981006 H         -110.7666 eV
Total Mermin free energy:           -4.0705981006 H         -110.7666 eV
Force related energy:               -4.0705981006 H         -110.7666 eV

MD Temperature:                      0.0009056589 H          285.9841 K
MD Kinetic Energy:                   0.0027169768 H            0.0739 eV
Total MD Energy:                    -4.0678811238 H         -110.6927 eV

--------------------------------------------------------------------------------

***  Geometry step: 16

 iSCC Total electronic   Diff electronic      SCC error    
    1   -0.41425254E+01    0.00000000E+00    0.40185698E-02
    2   -0.41394130E+01    0.31124799E-02    0.32057869E-02
    3   -0.41394130E+01   -0.69462738E-08    0.12254435E-03
    4   -0.41394130E+01   -0.94048573E-08    0.11313952E-04
    5   -0.41394130E+01   -0.25312019E-09    0.76813134E-09

Total Energy:                       -4.0711759654 H         -110.7823 eV
Extrapolated to 0K:                 -4.0711759654 H         -110.7823 eV
Total Mermin free energy:           -4.0711759654 H         -110.7823 eV
Force related energy:               -4.0711759654 H         -110.7823 eV

MD Temperature:                      0.0010713700 H          338.3115 K
MD Kinetic Energy:                   0.0032141100 H            0.0875 eV
Total MD Energy:                    -4.0679618555 H         -110.6949 eV

--------------------------------------------------------------------------------

***  Geometry step: 17

 iSCC Total electronic   Diff electronic      SCC error    
    1   -0.41394130E+01    0.00000000E+00    0.49090648E-02
    2   -0.41328127E+01    0.66002491E-02    0.39047328E-02
    3   -0.41328127E+01   -0.22085541E-07    0.20222652E-03
    4   -0.41328128E+01   -0.29911812E-07    0.17462336E-04
    5   -0.41328128E+01   -0.62952665E-09    0.10865451E-08

Total Energy:                       -4.0714779789 H         -110.7906 eV
Extrapolated to 0K:                 -4.0714779789 H         -110.7906 eV
Total Mermin free energy:           -4.0714779789 H         -110.7906 eV
Force related energy:               -4.0714779789 H         -110.7906 eV

MD Temperature:                      0.0011556598 H          364.9281 K
MD Kinetic Energy:                   0.0034669795 H            0.0943 eV
Total MD Energy:                    -4.0680109994 H         -110.6962 eV

--------------------------------------------------------------------------------

***  Geometry step: 18

 iSCC Total electronic   Diff electronic      SCC error    
    1   -0.41328128E+01    0.00000000E+00    0.54307772E-02
    2   -0.41260184E+01    0.67943306E-02    0.43072435E-02
    3   -0.41260185E+01   -0.20832867E-07    0.18187347E-03
    4   -0.41260185E+01   -0.28393949E-07    0.23365825E-04
    5   -0.41260185E+01   -0.55958971E-09    0.16767974E-08

Total Energy:                       -4.0711093340 H         -110.7805 eV
Extrapolated to 0K:                 -4.0711093340 H         -110.7805 eV
Total Mermin free energy:           -4.0711093340 H         -110.7805 eV
Force related energy:               -4.0711093340 H         -110.7805 eV

MD Temperature:                      0.0010395711 H          328.2702 K
MD Kinetic Energy:                   0.0031187134 H            0.0849 eV
Total MD Energy:                    -4.0679906207 H         -110.6957 eV

--------------------------------------------------------------------------------

***  Geometry step: 19

 iSCC Total electronic   Diff electronic      SCC error    
    1   -0.41260185E+01    0.00000000E+00    0.50558712E-02
    2   -0.41219042E+01    0.41143020E-02    0.40047197E-02
    3   -0.41219042E+01   -0.47845399E-08    0.62164763E-04
    4   -0.41219042E+01   -0.72049682E-08    0.22981677E-04
    5   -0.41219042E+01   -0.75763396E-10    0.18448620E-08

Total Energy:                       -4.0707071281 H         -110.7696 eV
Extrapolated to 0K:                 -4.0707071281 H         -110.7696 eV
Total Mermin free energy:           -4.0707071281 H         -110.7696 eV
Force related energy:               -4.0707071281 H         -110.7696 eV

MD Temperature:                      0.0009100314 H          287.3649 K
MD Kinetic Energy:                   0.0027300943 H            0.0743 eV
Total MD Energy:                    -4.0679770339 H         -110.6953 eV

--------------------------------------------------------------------------------

***  Geometry step: 20

 iSCC Total electronic   Diff electronic      SCC error    
    1   -0.41219042E+01    0.00000000E+00    0.38296906E-02
    2   -0.41220289E+01   -0.12468664E-03    0.30334946E-02
    3   -0.41220289E+01   -0.65579728E-08    0.88520534E-04
    4   -0.41220289E+01   -0.93483266E-08    0.10939893E-04
    5   -0.41220289E+01   -0.14256241E-09    0.68639405E-09

Total Energy:                       -4.0708209514 H         -110.7727 eV
Extrapolated to 0K:                 -4.0708209514 H         -110.7727 eV
Total Mermin free energy:           -4.0708209514 H         -110.7727 eV
Force related energy:               -4.0708209514 H         -110.7727 eV

>> Charges saved for restart in charges.bin
MD Temperature:                      0.0009338720 H          294.8931 K
MD Kinetic Energy:                   0.0028016160 H            0.0762 eV
Total MD Energy:                    -4.0680193354 H         -110.6964 eV

--------------------------------------------------------------------------------

***  Geometry step: 21

 iSCC Total electronic   Diff electronic      SCC error    
    1   -0.41220289E+01    0.00000000E+00    0.26996961E-02
    2   -0.41263479E+01   -0.43189590E-02    0.20911183E-02
    3   -0.41263479E+01   -0.22094370E-07    0.14817567E-03
    4   -0.41263479E+01   -0.30367878E-07    0.30643984E-05

Total Energy:                       -4.0711666439 H         -110.7821 eV
Extrapolated to 0K:                 -4.0711666439 H         -110.7821 eV
Total Mermin free energy:           -4.0711666439 H         -110.7821 eV
Force related energy:               -4.0711666439 H         -110.7821 eV

MD Temperature:                      0.0010241321 H          323.3949 K
MD Kinetic Energy:                   0.0030723962 H            0.0836 eV
Total MD Energy:                    -4.0680942477 H         -110.6985 eV

--------------------------------------------------------------------------------

***  Geometry step: 22

 iSCC Total electronic   Diff electronic      SCC error    
    1   -0.41263479E+01    0.00000000E+00    0.21311495E-02
    2   -0.41330659E+01   -0.67180080E-02    0.16432885E-02
    3   -0.41330660E+01   -0.19107683E-07    0.88454909E-04
    4   -0.41330660E+01   -0.26585471E-07    0.12027376E-05

Total Energy:                       -4.0710588268 H         -110.7791 eV
Extrapolated to 0K:                 -4.0710588268 H         -110.7791 eV
Total Mermin free energy:           -4.0710588268 H         -110.7791 eV
Force related energy:               -4.0710588268 H         -110.7791 eV

MD Temperature:                      0.0009783667 H          308.9434 K
MD Kinetic Energy:                   0.0029351002 H            0.0799 eV
Total MD Energy:                    -4.0681237266 H         -110.6993 eV

--------------------------------------------------------------------------------

***  Geometry step: 23

 iSCC Total electronic   Diff electronic      SCC error    
    1   -0.41330660E+01    0.00000000E+00    0.10299093E-02
    2   -0.41389681E+01   -0.59021507E-02    0.79680833E-03
    3   -0.41389681E+01   -0.34913175E-08    0.46668487E-04
    4   -0.41389681E+01   -0.49016649E-08    0.20423451E-06

Total Energy:                       -4.0705281179 H         -110.7647 eV
Extrapolated to 0K:                 -4.0705281179 H         -110.7647 eV
Total Mermin free energy:           -4.0705281179 H         -110.7647 eV
Force related energy:               -4.0705281179 H         -110.7647 eV

MD Temperature:                      0.0008118679 H          256.3673 K
MD Kinetic Energy:                   0.0024356037 H            0.0663 eV
Total MD Energy:                    -4.0680925142 H         -110.6984 eV

--------------------------------------------------------------------------------

***  Geometry step: 24

 iSCC Total electronic   Diff electronic      SCC error    
    1   -0.41389681E+01    0.00000000E+00    0.73181446E-03
    2   -0.41409312E+01   -0.19630203E-02    0.56693334E-03
    3   -0.41409312E+01   -0.19450059E-08    0.33809421E-04
    4   -0.41409312E+01   -0.27416869E-08    0.56059173E-07

Total Energy:                       -4.0703796439 H         -110.7607 eV
Extrapolated to 0K:                 -4.0703796439 H         -110.7607 eV
Total Mermin free energy:           -4.0703796439 H         -110.7607 eV
Force related energy:               -4.0703796439 H         -110.7607 eV

MD Temperature:                      0.0007571598 H          239.0919 K
MD Kinetic Energy:                   0.0022714793 H            0.0618 eV
Total MD Energy:                    -4.0681081646 H         -110.6989 eV

--------------------------------------------------------------------------------

***  Geometry step: 25

 iSCC Total electronic   Diff electronic      SCC error    
    1   -0.41409312E+01    0.00000000E+00    0.14435043E-02
    2   -0.41379894E+01    0.29418076E-02    0.11066322E-02
    3   -0.41379894E+01   -0.14387874E-07    0.22402187E-04
    4   -0.41379894E+01   -0.20209193E-07    0.10883092E-05

Total Energy:                       -4.0707489090 H         -110.7707 eV
Extrapolated to 0K:                 -4.0707489090 H         -110.7707 eV
Total Mermin free energy:           -4.0707489090 H         -110.7707 eV
Force related energy:               -4.0707489090 H         -110.7707 eV

MD Temperature:                      0.0008545217 H          269.8363 K
MD Kinetic Energy:                   0.0025635650 H            0.0698 eV
Total MD Energy:                    -4.0681853440 H         -110.7010 eV

--------------------------------------------------------------------------------

***  Geometry step: 26

 iSCC Total electronic   Diff electronic      SCC error    
    1   -0.41379894E+01    0.00000000E+00    0.14500564E-02
    2   -0.41318554E+01    0.61339422E-02    0.11091743E-02
    3   -0.41318555E+01   -0.17112027E-07    0.20297838E-04
    4   -0.41318555E+01   -0.23806380E-07    0.20002049E-05

Total Energy:                       -4.0709669936 H         -110.7766 eV
Extrapolated to 0K:                 -4.0709669936 H         -110.7766 eV
Total Mermin free energy:           -4.0709669936 H         -110.7766 eV
Force related energy:               -4.0709669936 H         -110.7766 eV

MD Temperature:                      0.0009123854 H          288.1082 K
MD Kinetic Energy:                   0.0027371563 H            0.0745 eV
Total MD Energy:                    -4.0682298374 H         -110.7022 eV

--------------------------------------------------------------------------------

***  Geometry step: 27

 iSCC Total electronic   Diff electronic      SCC error    
    1   -0.41318555E+01    0.00000000E+00    0.11424942E-02
    2   -0.41255627E+01    0.62927533E-02    0.88530826E-03
    3   -0.41255627E+01   -0.41132848E-08    0.64007004E-04
    4   -0.41255627E+01   -0.56601772E-08    0.62207262E-07

Total Energy:                       -4.0708384922 H         -110.7732 eV
Extrapolated to 0K:                 -4.0708384922 H         -110.7732 eV
Total Mermin free energy:           -4.0708384922 H         -110.7732 eV
Force related energy:               -4.0708384922 H         -110.7732 eV

MD Temperature:                      0.0008680158 H          274.0974 K
MD Kinetic Energy:                   0.0026040473 H            0.0709 eV
Total MD Energy:                    -4.0682344450 H         -110.7023 eV

--------------------------------------------------------------------------------

***  Geometry step: 28

 iSCC Total electronic   Diff electronic      SCC error    
    1   -0.41255627E+01    0.00000000E+00    0.23960226E-02
    2   -0.41219037E+01    0.36590456E-02    0.18938101E-02
    3   -0.41219037E+01   -0.30972673E-08    0.59015527E-04
    4   -0.41219037E+01   -0.43796691E-08    0.23254980E-05

Total Energy:                       -4.0707778147 H         -110.7715 eV
Extrapolated to 0K:                 -4.0707778147 H         -110.7715 eV
Total Mermin free energy:           -4.0707778147 H         -110.7715 eV
Force related energy:               -4.0707778147 H         -110.7715 eV

MD Temperature:                      0.0008422863 H          265.9727 K
MD Kinetic Energy:                   0.0025268590 H            0.0688 eV
Total MD Energy:                    -4.0682509557 H         -110.7027 eV

--------------------------------------------------------------------------------

***  Geometry step: 29

 iSCC Total electronic   Diff electronic      SCC error    
    1   -0.41219037E+01    0.00000000E+00    0.39798686E-02
    2   -0.41224876E+01   -0.58386983E-03    0.31509657E-02
    3   -0.41224876E+01   -0.19384097E-07    0.16500654E-03
    4   -0.41224876E+01   -0.26516083E-07    0.68518461E-05

Total Energy:                       -4.0710443367 H         -110.7788 eV
Extrapolated to 0K:                 -4.0710443367 H         -110.7788 eV
Total Mermin free energy:           -4.0710443367 H         -110.7788 eV
Force related energy:               -4.0710443367 H         -110.7788 eV

MD Temperature:                      0.0009119191 H          287.9609 K
MD Kinetic Energy:                   0.0027357573 H            0.0744 eV
Total MD Energy:                    -4.0683085795 H         -110.7043 eV

--------------------------------------------------------------------------------

***  Geometry step: 30

 iSCC Total electronic   Diff electronic      SCC error    
    1   -0.41224876E+01    0.00000000E+00    0.50030699E-02
    2   -0.41272294E+01   -0.47417706E-02    0.39728325E-02
    3   -0.41272294E+01   -0.20711557E-07    0.18570715E-03
    4   -0.41272294E+01   -0.28344281E-07    0.14226063E-04
    5   -0.41272294E+01   -0.54484950E-09    0.16279840E-08

Total Energy:                       -4.0713505710 H         -110.7871 eV
Extrapolated to 0K:                 -4.0713505710 H         -110.7871 eV
Total Mermin free energy:           -4.0713505710 H         -110.7871 eV
Force related energy:               -4.0713505710 H         -110.7871 eV

>> Charges saved for restart in charges.bin
MD Temperature:                      0.0009888808 H          312.2635 K
MD Kinetic Energy:                   0.0029666423 H            0.0807 eV
Total MD Energy:                    -4.0683839287 H         -110.7064 eV

--------------------------------------------------------------------------------

***  Geometry step: 31

 iSCC Total electronic   Diff electronic      SCC error    
    1   -0.41272294E+01    0.00000000E+00    0.51139054E-02
    2   -0.41341728E+01   -0.69433950E-02    0.40698572E-02
    3   -0.41341728E+01   -0.55788814E-08    0.96967572E-04
    4   -0.41341729E+01   -0.78077598E-08    0.20326188E-04
    5   -0.41341729E+01   -0.16382895E-09    0.21772166E-08

Total Energy:                       -4.0712832282 H         -110.7853 eV
Extrapolated to 0K:                 -4.0712832282 H         -110.7853 eV
Total Mermin free energy:           -4.0712832282 H         -110.7853 eV
Force related energy:               -4.0712832282 H         -110.7853 eV

MD Temperature:                      0.0009534765 H          301.0837 K
MD Kinetic Energy:                   0.0028604295 H            0.0778 eV
Total MD Energy:                    -4.0684227987 H         -110.7074 eV

--------------------------------------------------------------------------------

***  Geometry step: 32

 iSCC Total electronic   Diff electronic      SCC error    
    1   -0.41341729E+01    0.00000000E+00    0.45811229E-02
    2   -0.41400610E+01   -0.58881397E-02    0.36496658E-02
    3   -0.41400610E+01   -0.12827854E-08    0.43773810E-04
    4   -0.41400610E+01   -0.18369217E-08    0.17600886E-04
    5   -0.41400610E+01   -0.31286085E-10    0.16014372E-08

Total Energy:                       -4.0710013487 H         -110.7776 eV
Extrapolated to 0K:                 -4.0710013487 H         -110.7776 eV
Total Mermin free energy:           -4.0710013487 H         -110.7776 eV
Force related energy:               -4.0710013487 H         -110.7776 eV

MD Temperature:                      0.0008538872 H          269.6359 K
MD Kinetic Energy:                   0.0025616617 H            0.0697 eV
Total MD Energy:                    -4.0684396870 H         -110.7079 eV

--------------------------------------------------------------------------------

***  Geometry step: 33

 iSCC Total electronic   Diff electronic      SCC error    
    1   -0.41400610E+01    0.00000000E+00    0.38212273E-02
    2   -0.41419800E+01   -0.19189711E-02    0.30473355E-02
    3   -0.41419800E+01   -0.11819225E-07    0.15897259E-03
    4   -0.41419800E+01   -0.16039952E-07    0.59126634E-05

Total Energy:                       -4.0709267974 H         -110.7756 eV
Extrapolated to 0K:                 -4.0709267974 H         -110.7756 eV
Total Mermin free energy:           -4.0709267974 H         -110.7756 eV
Force related energy:               -4.0709267974 H         -110.7756 eV

MD Temperature:                      0.0008103031 H          255.8732 K
MD Kinetic Energy:                   0.0024309092 H            0.0661 eV
Total MD Energy:                    -4.0684958882 H         -110.7094 eV

--------------------------------------------------------------------------------

***  Geometry step: 34

 iSCC Total electronic   Diff electronic      SCC error    
    1   -0.41419800E+01    0.00000000E+00    0.29360332E-02
    2   -0.41391114E+01    0.28686026E-02    0.23450766E-02
    3   -0.41391114E+01   -0.17110669E-07    0.18513164E-03
    4   -0.41391114E+01   -0.23165781E-07    0.21871504E-05

Total Energy:                       -4.0709609753 H         -110.7765 eV
Extrapolated to 0K:                 -4.0709609753 H         -110.7765 eV
Total Mermin free energy:           -4.0709609753 H         -110.7765 eV
Force related energy:               -4.0709609753 H         -110.7765 eV

MD Temperature:                      0.0007983719 H          252.1056 K
MD Kinetic Energy:                   0.0023951158 H            0.0652 eV
Total MD Energy:                    -4.0685658595 H         -110.7113 eV

--------------------------------------------------------------------------------

***  Geometry step: 35

 iSCC Total electronic   Diff electronic      SCC error    
    1   -0.41391114E+01    0.00000000E+00    0.18695401E-02
    2   -0.41330603E+01    0.60511681E-02    0.14943544E-02
    3   -0.41330603E+01   -0.79719751E-08    0.12725403E-03
    4   -0.41330603E+01   -0.10674798E-07    0.49753594E-06

Total Energy:                       -4.0708343788 H         -110.7730 eV
Extrapolated to 0K:                 -4.0708343788 H         -110.7730 eV
Total Mermin free energy:           -4.0708343788 H         -110.7730 eV
Force related energy:               -4.0708343788 H         -110.7730 eV

MD Temperature:                      0.0007402115 H          233.7400 K
MD Kinetic Energy:                   0.0022206345 H            0.0604 eV
Total MD Energy:                    -4.0686137443 H         -110.7126 eV

--------------------------------------------------------------------------------

***  Geometry step: 36

 iSCC Total electronic   Diff electronic      SCC error    
    1   -0.41330603E+01    0.00000000E+00    0.68612450E-03
    2   -0.41268058E+01    0.62545117E-02    0.54703113E-03
    3   -0.41268058E+01   -0.60689231E-11    0.97000740E-06

Total Energy:                       -4.0705993964 H         -110.7666 eV
Extrapolated to 0K:                 -4.0705993964 H         -110.7666 eV
Total Mermin free energy:           -4.0705993964 H         -110.7666 eV
Force related energy:               -4.0705993964 H         -110.7666 eV

MD Temperature:                      0.0006508006 H          205.5063 K
MD Kinetic Energy:                   0.0019524019 H            0.0531 eV
Total MD Energy:                    -4.0686469945 H         -110.7135 eV

--------------------------------------------------------------------------------

***  Geometry step: 37

 iSCC Total electronic   Diff electronic      SCC error    
    1   -0.41268058E+01    0.00000000E+00    0.10803582E-02
    2   -0.41232265E+01    0.35793133E-02    0.82731832E-03
    3   -0.41232265E+01   -0.86020071E-08    0.53223410E-04
    4   -0.41232265E+01   -0.11554779E-07    0.82293398E-07

Total Energy:                       -4.0704892893 H         -110.7636 eV
Extrapolated to 0K:                 -4.0704892893 H         -110.7636 eV
Total Mermin free energy:           -4.0704892893 H         -110.7636 eV
Force related energy:               -4.0704892893 H         -110.7636 eV

MD Temperature:                      0.0006025431 H          190.2678 K
MD Kinetic Energy:                   0.0018076292 H            0.0492 eV
Total MD Energy:                    -4.0686816601 H         -110.7145 eV

--------------------------------------------------------------------------------

***  Geometry step: 38

 iSCC Total electronic   Diff electronic      SCC error    
    1   -0.41232265E+01    0.00000000E+00    0.19310769E-02
    2   -0.41238949E+01   -0.66842158E-03    0.14888626E-02
    3   -0.41238949E+01   -0.17856968E-07    0.12229210E-03
    4   -0.41238949E+01   -0.23918651E-07    0.74687144E-06

Total Energy:                       -4.0706468722 H         -110.7679 eV
Extrapolated to 0K:                 -4.0706468722 H         -110.7679 eV
Total Mermin free energy:           -4.0706468722 H         -110.7679 eV
Force related energy:               -4.0706468722 H         -110.7679 eV

MD Temperature:                      0.0006369909 H          201.1456 K
MD Kinetic Energy:                   0.0019109728 H            0.0520 eV
Total MD Energy:                    -4.0687358994 H         -110.7159 eV

--------------------------------------------------------------------------------

***  Geometry step: 39

 iSCC Total electronic   Diff electronic      SCC error    
    1   -0.41238949E+01    0.00000000E+00    0.22027696E-02
    2   -0.41284838E+01   -0.45888252E-02    0.17526321E-02
    3   -0.41284838E+01   -0.99188595E-08    0.13208239E-03
    4   -0.41284838E+01   -0.13241787E-07    0.19180450E-05

Total Energy:                       -4.0709495231 H         -110.7762 eV
Extrapolated to 0K:                 -4.0709495231 H         -110.7762 eV
Total Mermin free energy:           -4.0709495231 H         -110.7762 eV
Force related energy:               -4.0709495231 H         -110.7762 eV

MD Temperature:                      0.0007151707 H          225.8328 K
MD Kinetic Energy:                   0.0021455120 H            0.0584 eV
Total MD Energy:                    -4.0688040111 H         -110.7178 eV

--------------------------------------------------------------------------------

***  Geometry step: 40

 iSCC Total electronic   Diff electronic      SCC error    
    1   -0.41284838E+01    0.00000000E+00    0.29671591E-02
    2   -0.41348652E+01   -0.63813645E-02    0.23645889E-02
    3   -0.41348652E+01   -0.29884806E-09    0.17809569E-04
    4   -0.41348652E+01   -0.45502713E-09    0.77856008E-05

Total Energy:                       -4.0711722835 H         -110.7822 eV
Extrapolated to 0K:                 -4.0711722835 H         -110.7822 eV
Total Mermin free energy:           -4.0711722835 H         -110.7822 eV
Force related energy:               -4.0711722835 H         -110.7822 eV

>> Charges saved for restart in charges.bin
MD Temperature:                      0.0007682420 H          242.5914 K
MD Kinetic Energy:                   0.0023047261 H            0.0627 eV
Total MD Energy:                    -4.0688675574 H         -110.7195 eV

--------------------------------------------------------------------------------

***  Geometry step: 41

 iSCC Total electronic   Diff electronic      SCC error    
    1   -0.41348652E+01    0.00000000E+00    0.35984558E-02
    2   -0.41399749E+01   -0.51097317E-02    0.28686190E-02
    3   -0.41399749E+01   -0.61597891E-08    0.11271081E-03
    4   -0.41399749E+01   -0.84019165E-08    0.84640340E-05

Total Energy:                       -4.0712500890 H         -110.7844 eV
Extrapolated to 0K:                 -4.0712500890 H         -110.7844 eV
Total Mermin free energy:           -4.0712500890 H         -110.7844 eV
Force related energy:               -4.0712500890 H         -110.7844 eV

MD Temperature:                      0.0007738077 H          244.3489 K
MD Kinetic Energy:                   0.0023214232 H            0.0632 eV
Total MD Energy:                    -4.0689286657 H         -110.7212 eV

--------------------------------------------------------------------------------

***  Geometry step: 42

 iSCC Total electronic   Diff electronic      SCC error    
    1   -0.41399749E+01    0.00000000E+00    0.40582112E-02
    2   -0.41412801E+01   -0.13052120E-02    0.32297673E-02
    3   -0.41412801E+01   -0.16045765E-07    0.17180605E-03
    4   -0.41412802E+01   -0.22042216E-07    0.10920015E-04
    5   -0.41412802E+01   -0.40635051E-09    0.55790572E-09

Total Energy:                       -4.0712444697 H         -110.7842 eV
Extrapolated to 0K:                 -4.0712444697 H         -110.7842 eV
Total Mermin free energy:           -4.0712444697 H         -110.7842 eV
Force related energy:               -4.0712444697 H         -110.7842 eV

MD Temperature:                      0.0007519125 H          237.4349 K
MD Kinetic Energy:                   0.0022557375 H            0.0614 eV
Total MD Energy:                    -4.0689887322 H         -110.7228 eV

--------------------------------------------------------------------------------

***  Geometry step: 43

 iSCC Total electronic   Diff electronic      SCC error    
    1   -0.41412802E+01    0.00000000E+00    0.43574604E-02
    2   -0.41381090E+01    0.31711390E-02    0.34606867E-02
    3   -0.41381090E+01   -0.13019821E-07    0.14665010E-03
    4   -0.41381090E+01   -0.18014537E-07    0.13828155E-04
    5   -0.41381090E+01   -0.32048497E-09    0.80287599E-09

Total Energy:                       -4.0712621614 H         -110.7847 eV
Extrapolated to 0K:                 -4.0712621614 H         -110.7847 eV
Total Mermin free energy:           -4.0712621614 H         -110.7847 eV
Force related energy:               -4.0712621614 H         -110.7847 eV

MD Temperature:                      0.0007348199 H          232.0375 K
MD Kinetic Energy:                   0.0022044596 H            0.0600 eV
Total MD Energy:                    -4.0690577018 H         -110.7247 eV

--------------------------------------------------------------------------------

***  Geometry step: 44

 iSCC Total electronic   Diff electronic      SCC error    
    1   -0.41381090E+01    0.00000000E+00    0.44580244E-02
    2   -0.41320409E+01    0.60681194E-02    0.35357314E-02
    3   -0.41320409E+01   -0.25608191E-08    0.41886958E-04
    4   -0.41320409E+01   -0.39781431E-08    0.17870273E-04
    5   -0.41320409E+01   -0.30693670E-10    0.12190498E-08

Total Energy:                       -4.0712840182 H         -110.7853 eV
Extrapolated to 0K:                 -4.0712840182 H         -110.7853 eV
Total Mermin free energy:           -4.0712840182 H         -110.7853 eV
Force related energy:               -4.0712840182 H         -110.7853 eV

MD Temperature:                      0.0007143889 H          225.5859 K
MD Kinetic Energy:                   0.0021431668 H            0.0583 eV
Total MD Energy:                    -4.0691408514 H         -110.7270 eV

--------------------------------------------------------------------------------

***  Geometry step: 45

 iSCC Total electronic   Diff electronic      SCC error    
    1   -0.41320409E+01    0.00000000E+00    0.41295677E-02
    2   -0.41260383E+01    0.60026489E-02    0.32709382E-02
    3   -0.41260383E+01   -0.66234751E-08    0.85978197E-04
    4   -0.41260383E+01   -0.95732355E-08    0.13850308E-04
    5   -0.41260383E+01   -0.12979129E-09    0.84660456E-09

Total Energy:                       -4.0711306676 H         -110.7811 eV
Extrapolated to 0K:                 -4.0711306676 H         -110.7811 eV
Total Mermin free energy:           -4.0711306676 H         -110.7811 eV
Force related energy:               -4.0711306676 H         -110.7811 eV

MD Temperature:                      0.0006425242 H          202.8928 K
MD Kinetic Energy:                   0.0019275725 H            0.0525 eV
Total MD Energy:                    -4.0692030951 H         -110.7287 eV

--------------------------------------------------------------------------------

***  Geometry step: 46

 iSCC Total electronic   Diff electronic      SCC error    
    1   -0.41260383E+01    0.00000000E+00    0.31149246E-02
    2   -0.41228326E+01    0.32056869E-02    0.24621069E-02
    3   -0.41228326E+01   -0.20075706E-07    0.15197807E-03
    4   -0.41228327E+01   -0.27612055E-07    0.55863967E-05

Total Energy:                       -4.0708552117 H         -110.7736 eV
Extrapolated to 0K:                 -4.0708552117 H         -110.7736 eV
Total Mermin free energy:           -4.0708552117 H         -110.7736 eV
Force related energy:               -4.0708552117 H         -110.7736 eV

MD Temperature:                      0.0005385126 H          170.0486 K
MD Kinetic Energy:                   0.0016155377 H            0.0440 eV
Total MD Energy:                    -4.0692396740 H         -110.7296 eV

--------------------------------------------------------------------------------

***  Geometry step: 47

 iSCC Total electronic   Diff electronic      SCC error    
    1   -0.41228327E+01    0.00000000E+00    0.20230040E-02
    2   -0.41237054E+01   -0.87273884E-03    0.15593089E-02
    3   -0.41237054E+01   -0.15999927E-07    0.96010118E-04
    4   -0.41237054E+01   -0.21986249E-07    0.11570120E-05

Total Energy:                       -4.0707294175 H         -110.7702 eV
Extrapolated to 0K:                 -4.0707294175 H         -110.7702 eV
Total Mermin free energy:           -4.0707294175 H         -110.7702 eV
Force related energy:               -4.0707294175 H         -110.7702 eV

MD Temperature:                      0.0004823015 H          152.2986 K
MD Kinetic Energy:                   0.0014469044 H            0.0394 eV
Total MD Energy:                    -4.0692825131 H         -110.7308 eV

--------------------------------------------------------------------------------

***  Geometry step: 48

 iSCC Total electronic   Diff electronic      SCC error    
    1   -0.41237054E+01    0.00000000E+00    0.52769115E-03
    2   -0.41281393E+01   -0.44338201E-02    0.40455239E-03
    3   -0.41281393E+01   -0.19868747E-08    0.15611134E-04
    4   -0.41281393E+01   -0.27494869E-08    0.76346415E-07

Total Energy:                       -4.0708294890 H         -110.7729 eV
Extrapolated to 0K:                 -4.0708294890 H         -110.7729 eV
Total Mermin free energy:           -4.0708294890 H         -110.7729 eV
Force related energy:               -4.0708294890 H         -110.7729 eV

MD Temperature:                      0.0004953893 H          156.4314 K
MD Kinetic Energy:                   0.0014861679 H            0.0404 eV
Total MD Energy:                    -4.0693433211 H         -110.7325 eV

--------------------------------------------------------------------------------

***  Geometry step: 49

 iSCC Total electronic   Diff electronic      SCC error    
    1   -0.41281393E+01    0.00000000E+00    0.12561440E-02
    2   -0.41341234E+01   -0.59841412E-02    0.99312242E-03
    3   -0.41341234E+01   -0.28606060E-08    0.56739852E-04
    4   -0.41341234E+01   -0.40014232E-08    0.23943712E-06

Total Energy:                       -4.0709581668 H         -110.7764 eV
Extrapolated to 0K:                 -4.0709581668 H         -110.7764 eV
Total Mermin free energy:           -4.0709581668 H         -110.7764 eV
Force related energy:               -4.0709581668 H         -110.7764 eV

MD Temperature:                      0.0005176027 H          163.4458 K
MD Kinetic Energy:                   0.0015528081 H            0.0423 eV
Total MD Energy:                    -4.0694053587 H         -110.7342 eV

--------------------------------------------------------------------------------

***  Geometry step: 50

 iSCC Total electronic   Diff electronic      SCC error    
    1   -0.41341234E+01    0.00000000E+00    0.20923176E-02
    2   -0.41389143E+01   -0.47908743E-02    0.16238784E-02
    3   -0.41389143E+01   -0.12367521E-07    0.10765012E-03
    4   -0.41389143E+01   -0.17336213E-07    0.86115440E-06

Total Energy:                       -4.0709435152 H         -110.7760 eV
Extrapolated to 0K:                 -4.0709435152 H         -110.7760 eV
Total Mermin free energy:           -4.0709435152 H         -110.7760 eV
Force related energy:               -4.0709435152 H         -110.7760 eV

>> Charges saved for restart in charges.bin
MD Temperature:                      0.0004998881 H          157.8520 K
MD Kinetic Energy:                   0.0014996643 H            0.0408 eV
Total MD Energy:                    -4.0694438509 H         -110.7352 eV

--------------------------------------------------------------------------------

***  Geometry step: 51

 iSCC Total electronic   Diff electronic      SCC error    
    1   -0.41389143E+01    0.00000000E+00    0.21606857E-02
    2   -0.41401947E+01   -0.12803496E-02    0.16814278E-02
    3   -0.41401947E+01   -0.11379178E-07    0.11746107E-03
    4   -0.41401947E+01   -0.15925630E-07    0.96531658E-06

Total Energy:                       -4.0709345032 H         -110.7758 eV
Extrapolated to 0K:                 -4.0709345032 H         -110.7758 eV
Total Mermin free energy:           -4.0709345032 H         -110.7758 eV
Force related energy:               -4.0709345032 H         -110.7758 eV

MD Temperature:                      0.0004884020 H          154.2250 K
MD Kinetic Energy:                   0.0014652060 H            0.0399 eV
Total MD Energy:                    -4.0694692972 H         -110.7359 eV

--------------------------------------------------------------------------------

***  Geometry step: 52

 iSCC Total electronic   Diff electronic      SCC error    
    1   -0.41401947E+01    0.00000000E+00    0.21836843E-02
    2   -0.41373257E+01    0.28690096E-02    0.17337793E-02
    3   -0.41373257E+01   -0.22204958E-08    0.57165033E-04
    4   -0.41373257E+01   -0.31501228E-08    0.17823701E-05

Total Energy:                       -4.0711807643 H         -110.7825 eV
Extrapolated to 0K:                 -4.0711807643 H         -110.7825 eV
Total Mermin free energy:           -4.0711807643 H         -110.7825 eV
Force related energy:               -4.0711807643 H         -110.7825 eV

MD Temperature:                      0.0005496927 H          173.5790 K
MD Kinetic Energy:                   0.0016490781 H            0.0449 eV
Total MD Energy:                    -4.0695316862 H         -110.7376 eV

--------------------------------------------------------------------------------

***  Geometry step: 53

 iSCC Total electronic   Diff electronic      SCC error    
    1   -0.41373257E+01    0.00000000E+00    0.24510293E-02
    2   -0.41318715E+01    0.54541696E-02    0.19436707E-02
    3   -0.41318715E+01   -0.24586333E-08    0.58552023E-04
    4   -0.41318715E+01   -0.34640424E-08    0.25984831E-05

Total Energy:                       -4.0714658694 H         -110.7902 eV
Extrapolated to 0K:                 -4.0714658694 H         -110.7902 eV
Total Mermin free energy:           -4.0714658694 H         -110.7902 eV
Force related energy:               -4.0714658694 H         -110.7902 eV

MD Temperature:                      0.0006171241 H          194.8721 K
MD Kinetic Energy:                   0.0018513723 H            0.0504 eV
Total MD Energy:                    -4.0696144971 H         -110.7398 eV

--------------------------------------------------------------------------------

***  Geometry step: 54

 iSCC Total electronic   Diff electronic      SCC error    
    1   -0.41318715E+01    0.00000000E+00    0.28003787E-02
    2   -0.41266732E+01    0.51983301E-02    0.22218168E-02
    3   -0.41266732E+01   -0.13020078E-07    0.14088934E-03
    4   -0.41266732E+01   -0.17707186E-07    0.20406541E-05

Total Energy:                       -4.0714034509 H         -110.7885 eV
Extrapolated to 0K:                 -4.0714034509 H         -110.7885 eV
Total Mermin free energy:           -4.0714034509 H         -110.7885 eV
Force related energy:               -4.0714034509 H         -110.7885 eV

MD Temperature:                      0.0005815573 H          183.6410 K
MD Kinetic Energy:                   0.0017446719 H            0.0475 eV
Total MD Energy:                    -4.0696587791 H         -110.7410 eV

--------------------------------------------------------------------------------

***  Geometry step: 55

 iSCC Total electronic   Diff electronic      SCC error    
    1   -0.41266732E+01    0.00000000E+00    0.32702234E-02
    2   -0.41241933E+01    0.24798767E-02    0.25983157E-02
    3   -0.41241934E+01   -0.14109813E-07    0.15566189E-03
    4   -0.41241934E+01   -0.19033142E-07    0.32240275E-05

Total Energy:                       -4.0711259692 H         -110.7810 eV
Extrapolated to 0K:                 -4.0711259692 H         -110.7810 eV
Total Mermin free energy:           -4.0711259692 H         -110.7810 eV
Force related energy:               -4.0711259692 H         -110.7810 eV

MD Temperature:                      0.0004839689 H          152.8251 K
MD Kinetic Energy:                   0.0014519067 H            0.0395 eV
Total MD Energy:                    -4.0696740625 H         -110.7415 eV

--------------------------------------------------------------------------------

***  Geometry step: 56

 iSCC Total electronic   Diff electronic      SCC error    
    1   -0.41241934E+01    0.00000000E+00    0.36947858E-02
    2   -0.41254625E+01   -0.12691517E-02    0.29379293E-02
    3   -0.41254625E+01   -0.35237866E-08    0.75955130E-04
    4   -0.41254625E+01   -0.48822910E-08    0.83919277E-05

Total Energy:                       -4.0710455933 H         -110.7788 eV
Extrapolated to 0K:                 -4.0710455933 H         -110.7788 eV
Total Mermin free energy:           -4.0710455933 H         -110.7788 eV
Force related energy:               -4.0710455933 H         -110.7788 eV

MD Temperature:                      0.0004463966 H          140.9607 K
MD Kinetic Energy:                   0.0013391899 H            0.0364 eV
Total MD Energy:                    -4.0697064034 H         -110.7423 eV

--------------------------------------------------------------------------------

***  Geometry step: 57

 iSCC Total electronic   Diff electronic      SCC error    
    1   -0.41254625E+01    0.00000000E+00    0.37049433E-02
    2   -0.41299042E+01   -0.44416803E-02    0.29478856E-02
    3   -0.41299042E+01   -0.15964572E-08    0.49165984E-04
    4   -0.41299042E+01   -0.22480240E-08    0.10633226E-04
    5   -0.41299042E+01   -0.48435034E-10    0.88306962E-09

Total Energy:                       -4.0712176863 H         -110.7835 eV
Extrapolated to 0K:                 -4.0712176863 H         -110.7835 eV
Total Mermin free energy:           -4.0712176863 H         -110.7835 eV
Force related energy:               -4.0712176863 H         -110.7835 eV

MD Temperature:                      0.0004830683 H          152.5407 K
MD Kinetic Energy:                   0.0014492048 H            0.0394 eV
Total MD Energy:                    -4.0697684815 H         -110.7440 eV

--------------------------------------------------------------------------------

***  Geometry step: 58

 iSCC Total electronic   Diff electronic      SCC error    
    1   -0.41299042E+01    0.00000000E+00    0.31005814E-02
    2   -0.41356303E+01   -0.57260686E-02    0.24707148E-02
    3   -0.41356303E+01   -0.97298933E-08    0.14120667E-03
    4   -0.41356303E+01   -0.13110014E-07    0.30402589E-05

Total Energy:                       -4.0712663177 H         -110.7848 eV
Extrapolated to 0K:                 -4.0712663177 H         -110.7848 eV
Total Mermin free energy:           -4.0712663177 H         -110.7848 eV
Force related energy:               -4.0712663177 H         -110.7848 eV

MD Temperature:                      0.0004816020 H          152.0777 K
MD Kinetic Energy:                   0.0014448059 H            0.0393 eV
Total MD Energy:                    -4.0698215118 H         -110.7455 eV

--------------------------------------------------------------------------------

***  Geometry step: 59

 iSCC Total electronic   Diff electronic      SCC error    
    1   -0.41356303E+01    0.00000000E+00    0.21375218E-02
    2   -0.41400360E+01   -0.44056571E-02    0.16666864E-02
    3   -0.41400360E+01   -0.11669760E-07    0.14482859E-03
    4   -0.41400360E+01   -0.15879404E-07    0.71481080E-06

Total Energy:                       -4.0709728592 H         -110.7768 eV
Extrapolated to 0K:                 -4.0709728592 H         -110.7768 eV
Total Mermin free energy:           -4.0709728592 H         -110.7768 eV
Force related energy:               -4.0709728592 H         -110.7768 eV

MD Temperature:                      0.0003836078 H          121.1336 K
MD Kinetic Energy:                   0.0011508235 H            0.0313 eV
Total MD Energy:                    -4.0698220357 H         -110.7455 eV

--------------------------------------------------------------------------------

***  Geometry step: 60

 iSCC Total electronic   Diff electronic      SCC error    
    1   -0.41400360E+01    0.00000000E+00    0.11646332E-02
    2   -0.41408852E+01   -0.84920864E-03    0.90626134E-03
    3   -0.41408852E+01   -0.43090598E-08    0.81116855E-04
    4   -0.41408852E+01   -0.58865224E-08    0.45659136E-07

Total Energy:                       -4.0707438929 H         -110.7706 eV
Extrapolated to 0K:                 -4.0707438929 H         -110.7706 eV
Total Mermin free energy:           -4.0707438929 H         -110.7706 eV
Force related energy:               -4.0707438929 H         -110.7706 eV

>> Charges saved for restart in charges.bin
MD Temperature:                      0.0003099249 H           97.8664 K
MD Kinetic Energy:                   0.0009297748 H            0.0253 eV
Total MD Energy:                    -4.0698141182 H         -110.7453 eV

--------------------------------------------------------------------------------

***  Geometry step: 61

 iSCC Total electronic   Diff electronic      SCC error    
    1   -0.41408852E+01    0.00000000E+00    0.13825661E-03
    2   -0.41376898E+01    0.31954377E-02    0.10738223E-03
    3   -0.41376898E+01   -0.67847061E-10    0.95358131E-05

Total Energy:                       -4.0709489139 H         -110.7762 eV
Extrapolated to 0K:                 -4.0709489139 H         -110.7762 eV
Total Mermin free energy:           -4.0709489139 H         -110.7762 eV
Force related energy:               -4.0709489139 H         -110.7762 eV

MD Temperature:                      0.0003624054 H          114.4384 K
MD Kinetic Energy:                   0.0010872161 H            0.0296 eV
Total MD Energy:                    -4.0698616978 H         -110.7466 eV

--------------------------------------------------------------------------------

***  Geometry step: 62

 iSCC Total electronic   Diff electronic      SCC error    
    1   -0.41376898E+01    0.00000000E+00    0.14435269E-02
    2   -0.41321835E+01    0.55062620E-02    0.11220584E-02
    3   -0.41321835E+01   -0.63288192E-08    0.99802091E-04
    4   -0.41321835E+01   -0.85321270E-08    0.54122591E-06

Total Energy:                       -4.0712008151 H         -110.7830 eV
Extrapolated to 0K:                 -4.0712008151 H         -110.7830 eV
Total Mermin free energy:           -4.0712008151 H         -110.7830 eV
Force related energy:               -4.0712008151 H         -110.7830 eV

MD Temperature:                      0.0004302538 H          135.8632 K
MD Kinetic Energy:                   0.0012907613 H            0.0351 eV
Total MD Energy:                    -4.0699100538 H         -110.7479 eV

--------------------------------------------------------------------------------

***  Geometry step: 63

 iSCC Total electronic   Diff electronic      SCC error    
    1   -0.41321835E+01    0.00000000E+00    0.24552663E-02
    2   -0.41271493E+01    0.50342446E-02    0.19536495E-02
    3   -0.41271493E+01   -0.12761201E-07    0.14886646E-03
    4   -0.41271493E+01   -0.17049919E-07    0.25752551E-05

Total Energy:                       -4.0711141792 H         -110.7807 eV
Extrapolated to 0K:                 -4.0711141792 H         -110.7807 eV
Total Mermin free energy:           -4.0711141792 H         -110.7807 eV
Force related energy:               -4.0711141792 H         -110.7807 eV

MD Temperature:                      0.0004023083 H          127.0388 K
MD Kinetic Energy:                   0.0012069248 H            0.0328 eV
Total MD Energy:                    -4.0699072544 H         -110.7478 eV

--------------------------------------------------------------------------------

***  Geometry step: 64

 iSCC Total electronic   Diff electronic      SCC error    
    1   -0.41271493E+01    0.00000000E+00    0.31021599E-02
    2   -0.41248076E+01    0.23417126E-02    0.24654515E-02
    3   -0.41248076E+01   -0.71136466E-08    0.11449967E-03
    4   -0.41248076E+01   -0.95162180E-08    0.51193427E-05

Total Energy:                       -4.0709724256 H         -110.7768 eV
Extrapolated to 0K:                 -4.0709724256 H         -110.7768 eV
Total Mermin free energy:           -4.0709724256 H         -110.7768 eV
Force related energy:               -4.0709724256 H         -110.7768 eV

MD Temperature:                      0.0003596401 H          113.5652 K
MD Kinetic Energy:                   0.0010789203 H            0.0294 eV
Total MD Energy:                    -4.0698935053 H         -110.7474 eV

--------------------------------------------------------------------------------

***  Geometry step: 65

 iSCC Total electronic   Diff electronic      SCC error    
    1   -0.41248076E+01    0.00000000E+00    0.31702499E-02
    2   -0.41260186E+01   -0.12110179E-02    0.25200561E-02
    3   -0.41260186E+01   -0.43800163E-09    0.57643618E-05

Total Energy:                       -4.0711600791 H         -110.7819 eV
Extrapolated to 0K:                 -4.0711600791 H         -110.7819 eV
Total Mermin free energy:           -4.0711600791 H         -110.7819 eV
Force related energy:               -4.0711600791 H         -110.7819 eV

MD Temperature:                      0.0004148247 H          130.9911 K
MD Kinetic Energy:                   0.0012444741 H            0.0339 eV
Total MD Energy:                    -4.0699156050 H         -110.7480 eV

--------------------------------------------------------------------------------

***  Geometry step: 66

 iSCC Total electronic   Diff electronic      SCC error    
    1   -0.41260186E+01    0.00000000E+00    0.29732475E-02
    2   -0.41302091E+01   -0.41904153E-02    0.23638991E-02
    3   -0.41302091E+01   -0.61359149E-08    0.10463367E-03
    4   -0.41302091E+01   -0.83687581E-08    0.48394503E-05

Total Energy:                       -4.0715157647 H         -110.7916 eV
Extrapolated to 0K:                 -4.0715157647 H         -110.7916 eV
Total Mermin free energy:           -4.0715157647 H         -110.7916 eV
Force related energy:               -4.0715157647 H         -110.7916 eV

MD Temperature:                      0.0005179077 H          163.5421 K
MD Kinetic Energy:                   0.0015537231 H            0.0423 eV
Total MD Energy:                    -4.0699620416 H         -110.7493 eV

--------------------------------------------------------------------------------

***  Geometry step: 67

 iSCC Total electronic   Diff electronic      SCC error    
    1   -0.41302091E+01    0.00000000E+00    0.28442004E-02
    2   -0.41355499E+01   -0.53408170E-02    0.22593078E-02
    3   -0.41355499E+01   -0.12629735E-07    0.14128409E-03
    4   -0.41355499E+01   -0.17336816E-07    0.41750233E-05

Total Energy:                       -4.0715404335 H         -110.7923 eV
Extrapolated to 0K:                 -4.0715404335 H         -110.7923 eV
Total Mermin free energy:           -4.0715404335 H         -110.7923 eV
Force related energy:               -4.0715404335 H         -110.7923 eV

MD Temperature:                      0.0005216952 H          164.7381 K
MD Kinetic Energy:                   0.0015650857 H            0.0426 eV
Total MD Energy:                    -4.0699753478 H         -110.7497 eV

--------------------------------------------------------------------------------

***  Geometry step: 68

 iSCC Total electronic   Diff electronic      SCC error    
    1   -0.41355499E+01    0.00000000E+00    0.27989391E-02
    2   -0.41394595E+01   -0.39095740E-02    0.22216264E-02
    3   -0.41394595E+01   -0.78545765E-08    0.11082000E-03
    4   -0.41394595E+01   -0.10901910E-07    0.41801411E-05

Total Energy:                       -4.0711988935 H         -110.7830 eV
Extrapolated to 0K:                 -4.0711988935 H         -110.7830 eV
Total Mermin free energy:           -4.0711988935 H         -110.7830 eV
Force related energy:               -4.0711988935 H         -110.7830 eV

MD Temperature:                      0.0004194603 H          132.4549 K
MD Kinetic Energy:                   0.0012583810 H            0.0342 eV
Total MD Energy:                    -4.0699405125 H         -110.7487 eV

--------------------------------------------------------------------------------

***  Geometry step: 69

 iSCC Total electronic   Diff electronic      SCC error    
    1   -0.41394595E+01    0.00000000E+00    0.27406226E-02
    2   -0.41398027E+01   -0.34316884E-03    0.21754891E-02
    3   -0.41398027E+01   -0.73411854E-09    0.20856193E-04
    4   -0.41398027E+01   -0.11628112E-08    0.67656035E-05

Total Energy:                       -4.0710475759 H         -110.7788 eV
Extrapolated to 0K:                 -4.0710475759 H         -110.7788 eV
Total Mermin free energy:           -4.0710475759 H         -110.7788 eV
Force related energy:               -4.0710475759 H         -110.7788 eV

MD Temperature:                      0.0003719074 H          117.4389 K
MD Kinetic Energy:                   0.0011157223 H            0.0304 eV
Total MD Energy:                    -4.0699318536 H         -110.7485 eV

--------------------------------------------------------------------------------

***  Geometry step: 70

 iSCC Total electronic   Diff electronic      SCC error    
    1   -0.41398027E+01    0.00000000E+00    0.26775908E-02
    2   -0.41363248E+01    0.34778533E-02    0.21241677E-02
    3   -0.41363248E+01   -0.47582436E-08    0.82489065E-04
    4   -0.41363248E+01   -0.67192145E-08    0.40488658E-05

Total Energy:                       -4.0712267554 H         -110.7837 eV
Extrapolated to 0K:                 -4.0712267554 H         -110.7837 eV
Total Mermin free energy:           -4.0712267554 H         -110.7837 eV
Force related energy:               -4.0712267554 H         -110.7837 eV

>> Charges saved for restart in charges.bin
MD Temperature:                      0.0004197400 H          132.5433 K
MD Kinetic Energy:                   0.0012592200 H            0.0343 eV
Total MD Energy:                    -4.0699675354 H         -110.7495 eV

--------------------------------------------------------------------------------

***  Geometry step: 71

 iSCC Total electronic   Diff electronic      SCC error    
    1   -0.41363248E+01    0.00000000E+00    0.25230949E-02
    2   -0.41308538E+01    0.54710123E-02    0.19968602E-02
    3   -0.41308538E+01   -0.13960178E-07    0.12757724E-03
    4   -0.41308539E+01   -0.19364947E-07    0.32914890E-05

Total Energy:                       -4.0712292795 H         -110.7838 eV
Extrapolated to 0K:                 -4.0712292795 H         -110.7838 eV
Total Mermin free energy:           -4.0712292795 H         -110.7838 eV
Force related energy:               -4.0712292795 H         -110.7838 eV

MD Temperature:                      0.0004192221 H          132.3797 K
MD Kinetic Energy:                   0.0012576664 H            0.0342 eV
Total MD Energy:                    -4.0699716131 H         -110.7496 eV

--------------------------------------------------------------------------------

***  Geometry step: 72

 iSCC Total electronic   Diff electronic      SCC error    
    1   -0.41308539E+01    0.00000000E+00    0.20179669E-02
    2   -0.41260117E+01    0.48421740E-02    0.15622957E-02
    3   -0.41260117E+01   -0.11549551E-07    0.10393444E-03
    4   -0.41260117E+01   -0.15925699E-07    0.16398693E-05

Total Energy:                       -4.0709088504 H         -110.7751 eV
Extrapolated to 0K:                 -4.0709088504 H         -110.7751 eV
Total Mermin free energy:           -4.0709088504 H         -110.7751 eV
Force related energy:               -4.0709088504 H         -110.7751 eV

MD Temperature:                      0.0003253883 H          102.7494 K
MD Kinetic Energy:                   0.0009761648 H            0.0266 eV
Total MD Energy:                    -4.0699326856 H         -110.7485 eV

--------------------------------------------------------------------------------

***  Geometry step: 73

 iSCC Total electronic   Diff electronic      SCC error    
    1   -0.41260117E+01    0.00000000E+00    0.65057308E-03
    2   -0.41238577E+01    0.21540222E-02    0.50327981E-03
    3   -0.41238577E+01   -0.12255388E-08    0.33305286E-04
    4   -0.41238577E+01   -0.16858248E-08    0.87323649E-07

Total Energy:                       -4.0707097635 H         -110.7696 eV
Extrapolated to 0K:                 -4.0707097635 H         -110.7696 eV
Total Mermin free energy:           -4.0707097635 H         -110.7696 eV
Force related energy:               -4.0707097635 H         -110.7696 eV

MD Temperature:                      0.0002684475 H           84.7689 K
MD Kinetic Energy:                   0.0008053425 H            0.0219 eV
Total MD Energy:                    -4.0699044210 H         -110.7477 eV

--------------------------------------------------------------------------------

***  Geometry step: 74

 iSCC Total electronic   Diff electronic      SCC error    
    1   -0.41238577E+01    0.00000000E+00    0.10778796E-02
    2   -0.41252641E+01   -0.14063643E-02    0.83481111E-03
    3   -0.41252641E+01   -0.32044030E-08    0.56045311E-04
    4   -0.41252641E+01   -0.44148800E-08    0.10174868E-06

Total Energy:                       -4.0709299518 H         -110.7756 eV
Extrapolated to 0K:                 -4.0709299518 H         -110.7756 eV
Total Mermin free energy:           -4.0709299518 H         -110.7756 eV
Force related energy:               -4.0709299518 H         -110.7756 eV

MD Temperature:                      0.0003395978 H          107.2364 K
MD Kinetic Energy:                   0.0010187933 H            0.0277 eV
Total MD Energy:                    -4.0699111585 H         -110.7479 eV

--------------------------------------------------------------------------------

***  Geometry step: 75

 iSCC Total electronic   Diff electronic      SCC error    
    1   -0.41252641E+01    0.00000000E+00    0.24505091E-02
    2   -0.41297425E+01   -0.44784552E-02    0.19399809E-02
    3   -0.41297425E+01   -0.12343524E-07    0.12277363E-03
    4   -0.41297426E+01   -0.17089631E-07    0.16072570E-05

Total Energy:                       -4.0712890482 H         -110.7854 eV
Extrapolated to 0K:                 -4.0712890482 H         -110.7854 eV
Total Mermin free energy:           -4.0712890482 H         -110.7854 eV
Force related energy:               -4.0712890482 H         -110.7854 eV

MD Temperature:                      0.0004562176 H          144.0620 K
MD Kinetic Energy:                   0.0013686528 H            0.0372 eV
Total MD Energy:                    -4.0699203954 H         -110.7482 eV

--------------------------------------------------------------------------------

***  Geometry step: 76

 iSCC Total electronic   Diff electronic      SCC error    
    1   -0.41297426E+01    0.00000000E+00    0.32303522E-02
    2   -0.41354480E+01   -0.57054088E-02    0.25637141E-02
    3   -0.41354480E+01   -0.10171187E-07    0.12420439E-03
    4   -0.41354480E+01   -0.14188734E-07    0.40146895E-05

Total Energy:                       -4.0713384970 H         -110.7868 eV
Extrapolated to 0K:                 -4.0713384970 H         -110.7868 eV
Total Mermin free energy:           -4.0713384970 H         -110.7868 eV
Force related energy:               -4.0713384970 H         -110.7868 eV

MD Temperature:                      0.0004852325 H          153.2241 K
MD Kinetic Energy:                   0.0014556976 H            0.0396 eV
Total MD Energy:                    -4.0698827993 H         -110.7471 eV

--------------------------------------------------------------------------------

***  Geometry step: 77

 iSCC Total electronic   Diff electronic      SCC error    
    1   -0.41354480E+01    0.00000000E+00    0.34929192E-02
    2   -0.41396830E+01   -0.42349656E-02    0.27754831E-02
    3   -0.41396830E+01   -0.17898474E-08    0.45076094E-04
    4   -0.41396830E+01   -0.26550344E-08    0.94342432E-05

Total Energy:                       -4.0711819373 H         -110.7825 eV
Extrapolated to 0K:                 -4.0711819373 H         -110.7825 eV
Total Mermin free energy:           -4.0711819373 H         -110.7825 eV
Force related energy:               -4.0711819373 H         -110.7825 eV

MD Temperature:                      0.0004552651 H          143.7612 K
MD Kinetic Energy:                   0.0013657953 H            0.0372 eV
Total MD Energy:                    -4.0698161420 H         -110.7453 eV

--------------------------------------------------------------------------------

***  Geometry step: 78

 iSCC Total electronic   Diff electronic      SCC error    
    1   -0.41396830E+01    0.00000000E+00    0.35072727E-02
    2   -0.41402540E+01   -0.57108617E-03    0.27880723E-02
    3   -0.41402540E+01   -0.25124791E-08    0.61394490E-04
    4   -0.41402541E+01   -0.35758481E-08    0.83415738E-05

Total Energy:                       -4.0712776061 H         -110.7851 eV
Extrapolated to 0K:                 -4.0712776061 H         -110.7851 eV
Total Mermin free energy:           -4.0712776061 H         -110.7851 eV
Force related energy:               -4.0712776061 H         -110.7851 eV

MD Temperature:                      0.0004966867 H          156.8411 K
MD Kinetic Energy:                   0.0014900600 H            0.0405 eV
Total MD Energy:                    -4.0697875461 H         -110.7446 eV

--------------------------------------------------------------------------------

***  Geometry step: 79

 iSCC Total electronic   Diff electronic      SCC error    
    1   -0.41402541E+01    0.00000000E+00    0.33396096E-02
    2   -0.41369200E+01    0.33340101E-02    0.26568897E-02
    3   -0.41369201E+01   -0.10265385E-07    0.13744483E-03
    4   -0.41369201E+01   -0.14050806E-07    0.40228782E-05

Total Energy:                       -4.0715103841 H         -110.7914 eV
Extrapolated to 0K:                 -4.0715103841 H         -110.7914 eV
Total Mermin free energy:           -4.0715103841 H         -110.7914 eV
Force related energy:               -4.0715103841 H         -110.7914 eV

MD Temperature:                      0.0005792278 H          182.9055 K
MD Kinetic Energy:                   0.0017376834 H            0.0473 eV
Total MD Energy:                    -4.0697727006 H         -110.7441 eV

--------------------------------------------------------------------------------

***  Geometry step: 80

 iSCC Total electronic   Diff electronic      SCC error    
    1   -0.41369201E+01    0.00000000E+00    0.30182864E-02
    2   -0.41314690E+01    0.54510521E-02    0.24034878E-02
    3   -0.41314690E+01   -0.11239613E-07    0.14674239E-03
    4   -0.41314690E+01   -0.15186857E-07    0.26082985E-05

Total Energy:                       -4.0714026223 H         -110.7885 eV
Extrapolated to 0K:                 -4.0714026223 H         -110.7885 eV
Total Mermin free energy:           -4.0714026223 H         -110.7885 eV
Force related energy:               -4.0714026223 H         -110.7885 eV

>> Charges saved for restart in charges.bin
MD Temperature:                      0.0005638404 H          178.0465 K
MD Kinetic Energy:                   0.0016915212 H            0.0460 eV
Total MD Energy:                    -4.0697111011 H         -110.7425 eV

--------------------------------------------------------------------------------

***  Geometry step: 81

 iSCC Total electronic   Diff electronic      SCC error    
    1   -0.41314690E+01    0.00000000E+00    0.27250735E-02
    2   -0.41265038E+01    0.49652443E-02    0.21695510E-02
    3   -0.41265038E+01   -0.28767762E-08    0.74724619E-04
    4   -0.41265038E+01   -0.38833239E-08    0.30929434E-05

Total Energy:                       -4.0710071393 H         -110.7777 eV
Extrapolated to 0K:                 -4.0710071393 H         -110.7777 eV
Total Mermin free energy:           -4.0710071393 H         -110.7777 eV
Force related energy:               -4.0710071393 H         -110.7777 eV

MD Temperature:                      0.0004600698 H          145.2784 K
MD Kinetic Energy:                   0.0013802094 H            0.0376 eV
Total MD Energy:                    -4.0696269299 H         -110.7402 eV

--------------------------------------------------------------------------------

***  Geometry step: 82

 iSCC Total electronic   Diff electronic      SCC error    
    1   -0.41265038E+01    0.00000000E+00    0.25637907E-02
    2   -0.41242177E+01    0.22860906E-02    0.20393372E-02
    3   -0.41242177E+01   -0.13637864E-08    0.48665501E-04
    4   -0.41242177E+01   -0.18565425E-08    0.34155897E-05

Total Energy:                       -4.0707873917 H         -110.7718 eV
Extrapolated to 0K:                 -4.0707873917 H         -110.7718 eV
Total Mermin free energy:           -4.0707873917 H         -110.7718 eV
Force related energy:               -4.0707873917 H         -110.7718 eV

MD Temperature:                      0.0004063460 H          128.3138 K
MD Kinetic Energy:                   0.0012190379 H            0.0332 eV
Total MD Energy:                    -4.0695683538 H         -110.7386 eV

--------------------------------------------------------------------------------

***  Geometry step: 83

 iSCC Total electronic   Diff electronic      SCC error    
    1   -0.41242177E+01    0.00000000E+00    0.23409732E-02
    2   -0.41256853E+01   -0.14675984E-02    0.18634978E-02
    3   -0.41256853E+01   -0.10632117E-07    0.13962830E-03
    4   -0.41256853E+01   -0.14139759E-07    0.10513849E-05

Total Energy:                       -4.0709138814 H         -110.7752 eV
Extrapolated to 0K:                 -4.0709138814 H         -110.7752 eV
Total Mermin free energy:           -4.0709138814 H         -110.7752 eV
Force related energy:               -4.0709138814 H         -110.7752 eV

MD Temperature:                      0.0004594061 H          145.0688 K
MD Kinetic Energy:                   0.0013782182 H            0.0375 eV
Total MD Energy:                    -4.0695356633 H         -110.7377 eV

--------------------------------------------------------------------------------

***  Geometry step: 84

 iSCC Total electronic   Diff electronic      SCC error    
    1   -0.41256853E+01    0.00000000E+00    0.20013385E-02
    2   -0.41304740E+01   -0.47886485E-02    0.15537787E-02
    3   -0.41304740E+01   -0.13479344E-07    0.14110653E-03
    4   -0.41304740E+01   -0.18140478E-07    0.43671554E-06

Total Energy:                       -4.0710477420 H         -110.7788 eV
Extrapolated to 0K:                 -4.0710477420 H         -110.7788 eV
Total Mermin free energy:           -4.0710477420 H         -110.7788 eV
Force related energy:               -4.0710477420 H         -110.7788 eV

MD Temperature:                      0.0005207142 H          164.4283 K
MD Kinetic Energy:                   0.0015621426 H            0.0425 eV
Total MD Energy:                    -4.0694855993 H         -110.7363 eV

--------------------------------------------------------------------------------

***  Geometry step: 85

 iSCC Total electronic   Diff electronic      SCC error    
    1   -0.41304740E+01    0.00000000E+00    0.10675566E-02
    2   -0.41365549E+01   -0.60808568E-02    0.82688988E-03
    3   -0.41365549E+01   -0.49340692E-08    0.69613961E-04
    4   -0.41365549E+01   -0.67306267E-08    0.86695350E-07

Total Energy:                       -4.0708785049 H         -110.7742 eV
Extrapolated to 0K:                 -4.0708785049 H         -110.7742 eV
Total Mermin free energy:           -4.0708785049 H         -110.7742 eV
Force related energy:               -4.0708785049 H         -110.7742 eV

MD Temperature:                      0.0004971071 H          156.9738 K
MD Kinetic Energy:                   0.0014913213 H            0.0406 eV
Total MD Energy:                    -4.0693871836 H         -110.7337 eV

--------------------------------------------------------------------------------

***  Geometry step: 86

 iSCC Total electronic   Diff electronic      SCC error    
    1   -0.41365549E+01    0.00000000E+00    0.45605723E-03
    2   -0.41409539E+01   -0.43990564E-02    0.36435544E-03
    3   -0.41409539E+01   -0.48999915E-10    0.10710021E-04
    4   -0.41409539E+01   -0.65799810E-10    0.50196411E-07

Total Energy:                       -4.0706961295 H         -110.7693 eV
Extrapolated to 0K:                 -4.0706961295 H         -110.7693 eV
Total Mermin free energy:           -4.0706961295 H         -110.7693 eV
Force related energy:               -4.0706961295 H         -110.7693 eV

MD Temperature:                      0.0004710385 H          148.7420 K
MD Kinetic Energy:                   0.0014131156 H            0.0385 eV
Total MD Energy:                    -4.0692830139 H         -110.7308 eV

--------------------------------------------------------------------------------

***  Geometry step: 87

 iSCC Total electronic   Diff electronic      SCC error    
    1   -0.41409539E+01    0.00000000E+00    0.16595761E-02
    2   -0.41413304E+01   -0.37641376E-03    0.13255929E-02
    3   -0.41413304E+01   -0.62605148E-08    0.10913121E-03
    4   -0.41413304E+01   -0.85141378E-08    0.94705964E-06

Total Energy:                       -4.0708982204 H         -110.7748 eV
Extrapolated to 0K:                 -4.0708982204 H         -110.7748 eV
Total Mermin free energy:           -4.0708982204 H         -110.7748 eV
Force related energy:               -4.0708982204 H         -110.7748 eV

MD Temperature:                      0.0005619967 H          177.4643 K
MD Kinetic Energy:                   0.0016859902 H            0.0459 eV
Total MD Energy:                    -4.0692122302 H         -110.7289 eV

--------------------------------------------------------------------------------

***  Geometry step: 88

 iSCC Total electronic   Diff electronic      SCC error    
    1   -0.41413304E+01    0.00000000E+00    0.29347451E-02
    2   -0.41374344E+01    0.38959581E-02    0.23386558E-02
    3   -0.41374344E+01   -0.13167458E-07    0.15880932E-03
    4   -0.41374344E+01   -0.17819852E-07    0.42653443E-05

Total Energy:                       -4.0712406921 H         -110.7841 eV
Extrapolated to 0K:                 -4.0712406921 H         -110.7841 eV
Total Mermin free energy:           -4.0712406921 H         -110.7841 eV
Force related energy:               -4.0712406921 H         -110.7841 eV

MD Temperature:                      0.0007073141 H          223.3519 K
MD Kinetic Energy:                   0.0021219424 H            0.0577 eV
Total MD Energy:                    -4.0691187496 H         -110.7264 eV

--------------------------------------------------------------------------------

***  Geometry step: 89

 iSCC Total electronic   Diff electronic      SCC error    
    1   -0.41374344E+01    0.00000000E+00    0.41581216E-02
    2   -0.41311301E+01    0.63043240E-02    0.33071330E-02
    3   -0.41311301E+01   -0.87720400E-08    0.12769039E-03
    4   -0.41311301E+01   -0.11879762E-07    0.12022421E-04
    5   -0.41311301E+01   -0.28726266E-09    0.85482554E-09

Total Energy:                       -4.0713098292 H         -110.7860 eV
Extrapolated to 0K:                 -4.0713098292 H         -110.7860 eV
Total Mermin free energy:           -4.0713098292 H         -110.7860 eV
Force related energy:               -4.0713098292 H         -110.7860 eV

MD Temperature:                      0.0007800040 H          246.3055 K
MD Kinetic Energy:                   0.0023400120 H            0.0637 eV
Total MD Energy:                    -4.0689698171 H         -110.7223 eV

--------------------------------------------------------------------------------

***  Geometry step: 90

 iSCC Total electronic   Diff electronic      SCC error    
    1   -0.41311301E+01    0.00000000E+00    0.48799332E-02
    2   -0.41252562E+01    0.58739190E-02    0.38760202E-02
    3   -0.41252562E+01   -0.13701111E-08    0.14940596E-04
    4   -0.41252562E+01   -0.23306912E-08    0.10321586E-04
    5   -0.41252562E+01   -0.25961455E-11    0.18523005E-08

Total Energy:                       -4.0711421300 H         -110.7814 eV
Extrapolated to 0K:                 -4.0711421300 H         -110.7814 eV
Total Mermin free energy:           -4.0711421300 H         -110.7814 eV
Force related energy:               -4.0711421300 H         -110.7814 eV

>> Charges saved for restart in charges.bin
MD Temperature:                      0.0007807628 H          246.5451 K
MD Kinetic Energy:                   0.0023422883 H            0.0637 eV
Total MD Energy:                    -4.0687998417 H         -110.7177 eV

--------------------------------------------------------------------------------

***  Geometry step: 91

 iSCC Total electronic   Diff electronic      SCC error    
    1   -0.41252562E+01    0.00000000E+00    0.47358275E-02
    2   -0.41223375E+01    0.29187765E-02    0.37563970E-02
    3   -0.41223375E+01   -0.94463743E-08    0.11533825E-03
    4   -0.41223375E+01   -0.13203106E-07    0.18065590E-04
    5   -0.41223375E+01   -0.24923796E-09    0.13273818E-08

Total Energy:                       -4.0710400519 H         -110.7786 eV
Extrapolated to 0K:                 -4.0710400519 H         -110.7786 eV
Total Mermin free energy:           -4.0710400519 H         -110.7786 eV
Force related energy:               -4.0710400519 H         -110.7786 eV

MD Temperature:                      0.0008000983 H          252.6507 K
MD Kinetic Energy:                   0.0024002948 H            0.0653 eV
Total MD Energy:                    -4.0686397571 H         -110.7133 eV

--------------------------------------------------------------------------------

***  Geometry step: 92

 iSCC Total electronic   Diff electronic      SCC error    
    1   -0.41223375E+01    0.00000000E+00    0.38208206E-02
    2   -0.41236520E+01   -0.13145139E-02    0.30251463E-02
    3   -0.41236520E+01   -0.21859138E-07    0.17356145E-03
    4   -0.41236520E+01   -0.29829154E-07    0.91238188E-05

Total Energy:                       -4.0711198082 H         -110.7808 eV
Extrapolated to 0K:                 -4.0711198082 H         -110.7808 eV
Total Mermin free energy:           -4.0711198082 H         -110.7808 eV
Force related energy:               -4.0711198082 H         -110.7808 eV

MD Temperature:                      0.0008771324 H          276.9762 K
MD Kinetic Energy:                   0.0026313972 H            0.0716 eV
Total MD Energy:                    -4.0684884110 H         -110.7092 eV

--------------------------------------------------------------------------------

***  Geometry step: 93

 iSCC Total electronic   Diff electronic      SCC error    
    1   -0.41236520E+01    0.00000000E+00    0.26656012E-02
    2   -0.41287223E+01   -0.50702102E-02    0.21076715E-02
    3   -0.41287223E+01   -0.14447806E-07    0.13087767E-03
    4   -0.41287223E+01   -0.19887678E-07    0.36731568E-05

Total Energy:                       -4.0711487304 H         -110.7816 eV
Extrapolated to 0K:                 -4.0711487304 H         -110.7816 eV
Total Mermin free energy:           -4.0711487304 H         -110.7816 eV
Force related energy:               -4.0711487304 H         -110.7816 eV

MD Temperature:                      0.0009438996 H          298.0596 K
MD Kinetic Energy:                   0.0028316988 H            0.0771 eV
Total MD Energy:                    -4.0683170316 H         -110.7045 eV

--------------------------------------------------------------------------------

***  Geometry step: 94

 iSCC Total electronic   Diff electronic      SCC error    
    1   -0.41287223E+01    0.00000000E+00    0.17635143E-02
    2   -0.41353012E+01   -0.65788807E-02    0.13963590E-02
    3   -0.41353012E+01   -0.10934542E-08    0.34686153E-04
    4   -0.41353012E+01   -0.15878490E-08    0.15403313E-05

Total Energy:                       -4.0709250141 H         -110.7755 eV
Extrapolated to 0K:                 -4.0709250141 H         -110.7755 eV
Total Mermin free energy:           -4.0709250141 H         -110.7755 eV
Force related energy:               -4.0709250141 H         -110.7755 eV

MD Temperature:                      0.0009370271 H          295.8894 K
MD Kinetic Energy:                   0.0028110814 H            0.0765 eV
Total MD Energy:                    -4.0681139328 H         -110.6990 eV

--------------------------------------------------------------------------------

***  Geometry step: 95

 iSCC Total electronic   Diff electronic      SCC error    
    1   -0.41353012E+01    0.00000000E+00    0.14813398E-02
    2   -0.41401642E+01   -0.48630689E-02    0.11522237E-02
    3   -0.41401642E+01   -0.55186611E-08    0.78228095E-04
    4   -0.41401643E+01   -0.77504714E-08    0.63149913E-06

Total Energy:                       -4.0706469514 H         -110.7679 eV
Extrapolated to 0K:                 -4.0706469514 H         -110.7679 eV
Total Mermin free energy:           -4.0706469514 H         -110.7679 eV
Force related energy:               -4.0706469514 H         -110.7679 eV

MD Temperature:                      0.0009098344 H          287.3026 K
MD Kinetic Energy:                   0.0027295031 H            0.0743 eV
Total MD Energy:                    -4.0679174483 H         -110.6937 eV

--------------------------------------------------------------------------------

***  Geometry step: 96

 iSCC Total electronic   Diff electronic      SCC error    
    1   -0.41401643E+01    0.00000000E+00    0.21636557E-02
    2   -0.41407344E+01   -0.57013083E-03    0.16716138E-02
    3   -0.41407344E+01   -0.19163748E-07    0.83869039E-04
    4   -0.41407344E+01   -0.27005481E-07    0.11993871E-05

Total Energy:                       -4.0705556800 H         -110.7655 eV
Extrapolated to 0K:                 -4.0705556800 H         -110.7655 eV
Total Mermin free energy:           -4.0705556800 H         -110.7655 eV
Force related energy:               -4.0705556800 H         -110.7655 eV

MD Temperature:                      0.0009373448 H          295.9897 K
MD Kinetic Energy:                   0.0028120345 H            0.0765 eV
Total MD Energy:                    -4.0677436455 H         -110.6889 eV

--------------------------------------------------------------------------------

***  Geometry step: 97

 iSCC Total electronic   Diff electronic      SCC error    
    1   -0.41407344E+01    0.00000000E+00    0.21430938E-02
    2   -0.41365562E+01    0.41782730E-02    0.16529706E-02
    3   -0.41365562E+01   -0.18787317E-07    0.80496255E-04
    4   -0.41365562E+01   -0.26340676E-07    0.13050265E-05

Total Energy:                       -4.0705967204 H         -110.7666 eV
Extrapolated to 0K:                 -4.0705967204 H         -110.7666 eV
Total Mermin free energy:           -4.0705967204 H         -110.7666 eV
Force related energy:               -4.0705967204 H         -110.7666 eV

MD Temperature:                      0.0010102905 H          319.0241 K
MD Kinetic Energy:                   0.0030308715 H            0.0825 eV
Total MD Energy:                    -4.0675658489 H         -110.6841 eV

--------------------------------------------------------------------------------

***  Geometry step: 98

 iSCC Total electronic   Diff electronic      SCC error    
    1   -0.41365562E+01    0.00000000E+00    0.11882963E-02
    2   -0.41295417E+01    0.70145277E-02    0.91954056E-03
    3   -0.41295417E+01   -0.40253774E-08    0.57148836E-04
    4   -0.41295417E+01   -0.55954246E-08    0.40200024E-06

Total Energy:                       -4.0706115394 H         -110.7670 eV
Extrapolated to 0K:                 -4.0706115394 H         -110.7670 eV
Total Mermin free energy:           -4.0706115394 H         -110.7670 eV
Force related energy:               -4.0706115394 H         -110.7670 eV

MD Temperature:                      0.0010789489 H          340.7047 K
MD Kinetic Energy:                   0.0032368467 H            0.0881 eV
Total MD Energy:                    -4.0673746927 H         -110.6789 eV

--------------------------------------------------------------------------------

***  Geometry step: 99

 iSCC Total electronic   Diff electronic      SCC error    
    1   -0.41295417E+01    0.00000000E+00    0.62676285E-03
    2   -0.41229440E+01    0.65977097E-02    0.47960070E-03
    3   -0.41229440E+01   -0.29852227E-08    0.17269329E-04
    4   -0.41229440E+01   -0.41026817E-08    0.16810732E-07

Total Energy:                       -4.0705257463 H         -110.7646 eV
Extrapolated to 0K:                 -4.0705257463 H         -110.7646 eV
Total Mermin free energy:           -4.0705257463 H         -110.7646 eV
Force related energy:               -4.0705257463 H         -110.7646 eV

MD Temperature:                      0.0011204375 H          353.8057 K
MD Kinetic Energy:                   0.0033613124 H            0.0915 eV
Total MD Energy:                    -4.0671644339 H         -110.6732 eV

--------------------------------------------------------------------------------

***  Geometry step: 100

 iSCC Total electronic   Diff electronic      SCC error    
    1   -0.41229440E+01    0.00000000E+00    0.23027907E-02
    2   -0.41197510E+01    0.31929309E-02    0.17745561E-02
    3   -0.41197511E+01   -0.21532937E-07    0.11517271E-03
    4   -0.41197511E+01   -0.29423043E-07    0.99535882E-06

Total Energy:                       -4.0705113033 H         -110.7642 eV
Extrapolated to 0K:                 -4.0705113033 H         -110.7642 eV
Total Mermin free energy:           -4.0705113033 H         -110.7642 eV
Force related energy:               -4.0705113033 H         -110.7642 eV

>> Charges saved for restart in charges.bin
MD Temperature:                      0.0011874175 H          374.9563 K
MD Kinetic Energy:                   0.0035622525 H            0.0969 eV
Total MD Energy:                    -4.0669490508 H         -110.6673 eV

Molecular dynamics completed
MD information accumulated in md.out

--------------------------------------------------------------------------------
DFTB+ running times                          cpu [s]             wall clock [s]
--------------------------------------------------------------------------------
Global initialisation                  +       0.02 (  1.4%)       0.02 (  1.0%)
Pre-SCC initialisation                 +       0.08 (  7.1%)       0.05 (  2.8%)
SCC                                    +       0.94 ( 85.7%)       1.46 ( 88.7%)
Post-SCC processing                    +       0.05 (  4.3%)       0.10 (  6.3%)
--------------------------------------------------------------------------------
Missing                                +       0.02 (  1.4%)       0.02 (  1.3%)
Total                                  =       1.09 (100.0%)       1.65 (100.0%)
--------------------------------------------------------------------------------
