    3
Geometry Step: 12
    O     -3.21035000     -0.58504000     -0.01395000      6.72319335
    H     -2.24247000     -0.61827000      0.01848000      0.63840333
    H     -3.48920000     -1.24911000      0.63429000      0.63840333
